# vtk DataFile Version 1.0
Unstructured Grid Example
ASCII

DATASET UNSTRUCTURED_GRID
POINTS 2096 float
130 328 0
162 210 0
165 349 0
165 414 0
222 125 0
207 240 0
212 92 0
173 66 0
124 62 0
131 23 0
212 32 0
195 257 0
183 293 0
22 84 0
31 343 0
0 456 0
64 513 0
143 333 0
68 320 0
207 295 0
216 258 0
253 337 0
232 351 0
510 498 0
272 331 0
390 303 0
341 136 0
288 81 0
223 118 0
260 23 0
264 42 0
299 54 0
0 3 0
0 26 0
38 74 0
149 67 0
115 7 0
95 1 0
182 10 0
202 1 0
205 50 0
179 69 0
178 78 0
171 79 0
180 102 0
185 118 0
199 108 0
199 120 0
173 203 0
172 122 0
171 188 0
170 181 0
172 176 0
156 79 0
16 85 0
6 141 0
0 292 0
137 310 0
170 274 0
103 323 0
96 351 0
84 343 0
0 390 0
1 436 0
44 497 0
49 513 0
60 500 0
76 489 0
173 378 0
177 410 0
190 428 0
191 444 0
193 331 0
208 300 0
206 270 0
200 265 0
178 283 0
183 250 0
187 214 0
196 240 0
201 204 0
216 327 0
223 293 0
244 320 0
237 337 0
235 330 0
211 358 0
229 371 0
267 380 0
216 411 0
271 409 0
269 404 0
270 374 0
392 510 0
388 513 0
301 513 0
434 510 0
420 507 0
512 368 0
512 329 0
512 298 0
318 298 0
448 265 0
379 274 0
489 277 0
512 264 0
512 260 0
484 170 0
323 153 0
292 69 0
292 88 0
316 142 0
224 183 0
215 179 0
209 179 0
210 159 0
213 175 0
227 82 0
278 61 0
273 59 0
257 53 0
210 20 0
272 42 0
283 46 0
384 32 0
301 47 0
317 62 0
500 65 0
385 46 0
426 2 0
483 1 0
24 1 0
58 1 0
63 1 0
43 16 0
15 63 0
2 66 0
15 81 0
13 98 0
0 127 0
15 134 0
53 121 0
23 119 0
95 39 0
99 42 0
95 45 0
124 76 0
107 44 0
110 39 0
131 29 0
127 20 0
63 19 0
75 1 0
90 1 0
121 1 0
142 20 0
140 52 0
135 56 0
167 63 0
154 43 0
156 16 0
201 14 0
206 14 0
206 19 0
207 34 0
182 67 0
181 53 0
187 71 0
188 79 0
192 85 0
207 113 0
205 97 0
192 126 0
185 122 0
178 96 0
183 78 0
170 75 0
178 92 0
158 103 0
175 126 0
194 188 0
191 199 0
191 212 0
196 213 0
201 189 0
204 172 0
204 166 0
205 162 0
206 154 0
208 175 0
208 190 0
205 193 0
202 234 0
207 226 0
209 249 0
211 261 0
210 265 0
207 261 0
199 274 0
196 270 0
198 232 0
189 222 0
195 230 0
188 239 0
187 279 0
182 270 0
180 280 0
183 239 0
184 261 0
185 233 0
188 229 0
181 199 0
183 167 0
175 179 0
178 188 0
179 196 0
31 151 0
38 147 0
23 136 0
11 135 0
7 136 0
18 142 0
0 151 0
77 163 0
168 171 0
10 195 0
3 201 0
0 238 0
0 207 0
0 299 0
0 315 0
0 330 0
9 342 0
32 337 0
46 336 0
58 324 0
91 324 0
97 330 0
83 335 0
78 332 0
51 338 0
46 353 0
58 351 0
63 349 0
49 363 0
32 359 0
27 361 0
21 350 0
22 346 0
25 343 0
0 350 0
12 353 0
1 361 0
0 417 0
5 365 0
13 435 0
47 484 0
43 487 0
0 461 0
18 505 0
25 509 0
14 513 0
28 513 0
28 505 0
44 493 0
69 497 0
56 498 0
71 502 0
77 509 0
74 506 0
86 506 0
69 493 0
61 494 0
52 496 0
66 489 0
60 477 0
68 485 0
81 490 0
109 347 0
167 378 0
184 347 0
173 412 0
166 384 0
159 414 0
160 420 0
176 424 0
165 513 0
185 450 0
184 422 0
178 414 0
202 396 0
195 431 0
191 452 0
205 432 0
206 421 0
203 404 0
208 388 0
206 384 0
186 391 0
197 363 0
200 383 0
210 376 0
171 337 0
205 324 0
182 324 0
128 324 0
164 330 0
148 344 0
110 330 0
102 344 0
99 347 0
105 318 0
107 323 0
110 316 0
183 314 0
178 308 0
177 303 0
181 301 0
189 291 0
191 295 0
200 292 0
198 301 0
191 304 0
206 304 0
204 307 0
203 299 0
206 285 0
213 269 0
211 295 0
212 303 0
225 296 0
213 278 0
223 256 0
343 290 0
344 280 0
351 288 0
331 299 0
323 293 0
233 309 0
227 324 0
235 321 0
237 327 0
261 327 0
254 331 0
230 331 0
220 331 0
224 328 0
226 318 0
212 310 0
213 320 0
213 324 0
215 334 0
229 335 0
247 334 0
240 351 0
220 375 0
219 342 0
218 378 0
216 381 0
219 404 0
245 419 0
226 390 0
230 389 0
255 419 0
250 421 0
273 422 0
315 513 0
324 513 0
290 396 0
281 386 0
266 389 0
264 365 0
261 360 0
261 344 0
270 346 0
273 336 0
461 502 0
482 500 0
486 503 0
439 507 0
424 506 0
370 505 0
357 507 0
364 513 0
395 513 0
417 513 0
421 513 0
464 512 0
503 503 0
506 505 0
499 512 0
506 513 0
512 511 0
512 506 0
506 499 0
502 499 0
496 502 0
494 494 0
512 486 0
512 352 0
512 314 0
512 292 0
482 287 0
465 281 0
478 282 0
476 288 0
396 300 0
368 289 0
357 286 0
394 286 0
403 281 0
410 283 0
474 275 0
469 280 0
374 275 0
444 254 0
461 270 0
461 265 0
478 262 0
480 265 0
496 278 0
508 252 0
498 252 0
512 234 0
512 225 0
512 182 0
511 219 0
332 146 0
477 119 0
512 140 0
512 117 0
426 103 0
463 102 0
361 100 0
347 106 0
338 106 0
358 116 0
327 129 0
326 124 0
326 118 0
314 98 0
303 98 0
319 107 0
298 146 0
311 152 0
318 146 0
330 161 0
327 157 0
306 169 0
237 185 0
232 171 0
265 155 0
227 157 0
227 164 0
226 179 0
226 173 0
225 191 0
222 167 0
216 153 0
217 157 0
223 156 0
227 149 0
217 137 0
212 128 0
225 127 0
227 103 0
227 99 0
242 121 0
233 126 0
240 151 0
287 117 0
248 122 0
245 117 0
294 99 0
300 75 0
297 73 0
288 71 0
287 63 0
286 78 0
280 79 0
260 71 0
228 87 0
213 81 0
258 64 0
274 63 0
275 69 0
259 43 0
226 22 0
214 27 0
233 2 0
236 17 0
258 1 0
273 3 0
263 51 0
265 59 0
295 47 0
301 57 0
289 45 0
283 1 0
336 53 0
363 54 0
368 33 0
350 57 0
332 57 0
324 56 0
304 63 0
312 70 0
302 88 0
333 91 0
335 87 0
320 57 0
372 74 0
370 86 0
377 95 0
486 80 0
379 71 0
382 54 0
492 37 0
464 35 0
389 34 0
401 30 0
407 1 0
415 12 0
492 1 0
3 1 0
0 10 0
0 14 0
6 15 0
14 14 0
10 1 0
30 1 0
35 1 0
42 1 0
33 16 0
27 17 0
15 1 0
14 49 0
19 17 0
20 48 0
24 64 0
23 59 0
19 64 0
0 60 0
0 54 0
0 45 0
0 20 0
0 33 0
0 39 0
0 71 0
7 76 0
9 65 0
11 76 0
9 80 0
0 78 0
0 85 0
1 91 0
5 93 0
12 92 0
6 89 0
10 89 0
13 87 0
19 87 0
17 90 0
22 93 0
25 89 0
30 87 0
26 81 0
25 75 0
16 77 0
20 74 0
15 73 0
27 70 0
29 74 0
90 56 0
95 52 0
98 31 0
90 66 0
86 72 0
72 74 0
48 75 0
65 76 0
57 76 0
82 84 0
80 76 0
91 76 0
109 49 0
107 75 0
99 75 0
116 77 0
114 56 0
118 44 0
112 34 0
110 40 0
100 36 0
103 32 0
105 27 0
117 31 0
111 21 0
115 19 0
108 18 0
100 18 0
104 23 0
101 26 0
93 21 0
70 20 0
55 19 0
49 18 0
77 18 0
86 18 0
104 14 0
104 18 0
100 1 0
50 1 0
68 1 0
84 1 0
105 1 0
110 1 0
106 8 0
111 15 0
112 11 0
111 5 0
114 3 0
127 1 0
132 1 0
139 1 0
134 20 0
123 19 0
119 21 0
127 29 0
122 30 0
123 44 0
136 41 0
135 29 0
137 23 0
141 26 0
145 41 0
140 43 0
149 43 0
151 19 0
161 15 0
164 1 0
163 7 0
163 1 0
145 1 0
152 1 0
159 1 0
174 1 0
168 1 0
172 11 0
185 7 0
183 4 0
179 1 0
185 1 0
189 1 0
193 1 0
197 1 0
191 4 0
187 10 0
199 28 0
202 19 0
204 28 0
203 34 0
203 41 0
200 37 0
185 15 0
195 14 0
191 14 0
166 13 0
179 15 0
169 16 0
170 48 0
177 54 0
180 62 0
177 72 0
181 75 0
181 58 0
186 52 0
196 49 0
198 53 0
201 50 0
200 64 0
191 53 0
188 75 0
198 80 0
202 79 0
206 78 0
205 91 0
198 90 0
195 92 0
192 89 0
188 86 0
192 80 0
182 83 0
181 87 0
187 92 0
175 89 0
155 93 0
154 88 0
154 74 0
172 84 0
175 76 0
168 69 0
174 62 0
175 49 0
163 49 0
160 53 0
162 57 0
146 61 0
143 58 0
139 57 0
132 52 0
127 56 0
119 56 0
142 64 0
144 71 0
145 67 0
150 84 0
150 75 0
149 80 0
132 76 0
180 106 0
181 110 0
182 115 0
177 130 0
176 136 0
171 131 0
176 147 0
175 168 0
174 172 0
180 179 0
182 176 0
179 173 0
183 172 0
187 175 0
190 177 0
190 173 0
190 169 0
191 119 0
189 114 0
187 101 0
184 106 0
183 100 0
189 95 0
191 98 0
196 103 0
192 104 0
192 108 0
199 114 0
197 111 0
198 96 0
199 101 0
201 98 0
203 94 0
205 107 0
202 104 0
202 111 0
204 116 0
204 122 0
206 119 0
206 148 0
205 133 0
203 158 0
202 175 0
201 134 0
202 128 0
197 159 0
195 114 0
193 165 0
199 165 0
194 192 0
194 197 0
197 202 0
198 193 0
197 185 0
199 181 0
201 184 0
202 179 0
205 186 0
205 198 0
203 201 0
200 199 0
203 219 0
203 207 0
203 215 0
206 230 0
204 223 0
203 227 0
201 230 0
200 223 0
203 211 0
195 205 0
197 208 0
199 218 0
191 233 0
191 225 0
187 219 0
187 206 0
190 216 0
193 208 0
190 194 0
193 184 0
191 181 0
189 185 0
188 189 0
189 202 0
185 198 0
183 186 0
184 180 0
173 184 0
177 192 0
173 194 0
176 198 0
184 212 0
187 210 0
184 229 0
184 224 0
180 213 0
171 226 0
167 232 0
165 228 0
167 224 0
161 226 0
158 230 0
162 235 0
127 229 0
104 226 0
97 226 0
72 224 0
87 225 0
111 226 0
163 220 0
159 216 0
156 222 0
163 214 0
164 197 0
167 210 0
168 185 0
168 206 0
169 215 0
170 221 0
171 210 0
169 200 0
171 166 0
167 177 0
166 166 0
168 154 0
168 147 0
169 162 0
171 136 0
170 117 0
170 112 0
167 106 0
163 109 0
168 140 0
158 110 0
163 104 0
159 98 0
152 101 0
70 116 0
48 120 0
43 146 0
60 121 0
62 134 0
90 162 0
162 179 0
54 156 0
44 184 0
38 134 0
34 130 0
27 133 0
28 128 0
38 129 0
42 121 0
28 121 0
36 120 0
28 95 0
17 94 0
21 98 0
17 119 0
8 101 0
5 98 0
9 95 0
1 97 0
0 101 0
4 102 0
0 111 0
0 105 0
0 115 0
12 119 0
6 120 0
1 120 0
0 131 0
2 136 0
0 140 0
1 145 0
23 143 0
13 141 0
19 136 0
26 138 0
31 136 0
35 137 0
38 140 0
31 145 0
27 145 0
0 192 0
5 193 0
15 199 0
14 205 0
9 202 0
0 228 0
0 187 0
0 170 0
0 158 0
0 178 0
0 196 0
0 212 0
0 219 0
0 273 0
0 251 0
0 305 0
36 319 0
6 312 0
1 310 0
0 321 0
0 337 0
13 339 0
21 338 0
26 338 0
42 337 0
72 336 0
68 336 0
58 338 0
74 339 0
76 336 0
74 330 0
69 328 0
65 327 0
64 323 0
53 323 0
64 309 0
71 315 0
77 311 0
97 325 0
103 328 0
106 330 0
110 325 0
114 323 0
116 248 0
117 309 0
118 316 0
118 323 0
114 318 0
114 328 0
104 333 0
108 333 0
114 332 0
118 338 0
112 336 0
102 336 0
96 336 0
99 334 0
101 331 0
88 332 0
83 331 0
93 333 0
89 336 0
63 339 0
67 340 0
68 347 0
81 348 0
72 346 0
78 342 0
96 343 0
108 343 0
115 341 0
113 346 0
93 347 0
89 344 0
86 348 0
104 348 0
115 350 0
103 353 0
89 354 0
80 353 0
73 356 0
71 350 0
75 349 0
67 351 0
54 352 0
60 356 0
51 356 0
41 356 0
29 356 0
25 355 0
36 354 0
40 352 0
50 351 0
51 347 0
38 340 0
36 347 0
30 347 0
26 347 0
8 346 0
12 345 0
18 343 0
5 341 0
0 341 0
2 344 0
4 349 0
13 349 0
18 347 0
14 357 0
9 350 0
8 354 0
0 355 0
0 370 0
0 377 0
0 383 0
0 365 0
9 363 0
3 358 0
9 358 0
18 357 0
37 358 0
44 359 0
22 361 0
15 362 0
4 413 0
9 414 0
16 421 0
16 429 0
10 431 0
4 430 0
1 443 0
1 424 0
0 398 0
0 404 0
0 411 0
0 430 0
0 451 0
0 447 0
9 452 0
4 453 0
0 472 0
0 484 0
0 495 0
0 503 0
0 509 0
1 513 0
10 513 0
6 513 0
30 509 0
19 512 0
34 513 0
39 513 0
44 513 0
35 509 0
48 500 0
23 504 0
12 507 0
21 499 0
43 481 0
48 465 0
48 496 0
52 501 0
55 503 0
64 501 0
67 505 0
62 504 0
56 507 0
60 508 0
60 513 0
56 513 0
68 513 0
66 509 0
71 509 0
[...]
CELL_DATA 3947
COLOR_SCALARS ColorSpace 1
0.562092
0.384314
0.562092
0.379085
0.377778
0.375163
0.386928
0.406536
0.342484
0.369935
0.380392
0.36732
0.402614
0.402614
0.360784
0.335948
0.43268
0.407843
0.426144
0.375163
0.366013
0.342484
0.407843
0.479739
0.287582
0.270588
0.359477
0.447059
0.4
0.381699
0.491503
0.403922
0.284967
0.376471
0.39085
0.354248
0.453595
0.406536
0.277124
0.396078
0.411765
0.389542
0.396078
0.368627
0.482353
0.27451
0.29281
0.375163
0.376471
0.384314
0.413072
0.401307
0.398693
0.436601
0.377778
0.333333
0.202614
0.375163
0.420915
0.414379
0.279739
0.518954
0.40915
0.376471
0.509804
0.341176
0.332026
0.277124
0.398693
0.359477
0.458824
0.36732
0.439216
0.413072
0.39085
0.346405
0.428758
0.36732
0.372549
0.410458
0.445752
0.383007
0.407843
0.418301
0.373856
0.389542
0.394771
0.393464
0.396078
0.39085
0.406536
0.386928
0.444444
0.356863
0.4
0.380392
0.36732
0.369935
0.440523
0.389542
0.320261
0.445752
0.388235
0.383007
0.503268
0.4
0.402614
0.363399
0.364706
0.376471
0.386928
0.406536
0.223529
0.431373
0.318954
0.352941
0.423529
0.498039
0.375163
0.534641
0.388235
0.235294
0.439216
0.389542
0.418301
0.394771
0.462745
0.39085
0.449673
0.356863
0.389542
0.373856
0.39085
0.377778
0.359477
0.383007
0.389542
0.379085
0.461438
0.407843
0.430065
0.384314
0.397386
0.397386
0.388235
0.401307
0.376471
0.437908
0.389542
0.350327
0.453595
0.36732
0.420915
0.394771
0.443137
0.359477
0.449673
0.396078
0.317647
0.373856
0.460131
0.52549
0.39085
0.420915
0.407843
0.36732
0.538562
0.31634
0.375163
0.34902
0.440523
0.410458
0.386928
0.428758
0.334641
0.448366
0.245752
0.384314
0.341176
0.526797
0.415686
0.383007
0.4
0.354248
0.524183
0.363399
0.413072
0.392157
0.539869
0.269281
0.39085
0.403922
0.397386
0.407843
0.4
0.213072
0.385621
0.181699
0.418301
0.393464
0.393464
0.445752
0.394771
0.385621
0.359477
0.369935
0.388235
0.375163
0.393464
0.406536
0.373856
0.453595
0.380392
0.303268
0.206536
0.31634
0.270588
0.366013
0.296732
0.428758
0.380392
0.422222
0.240523
0.411765
0.32549
0.388235
0.201307
0.360784
0.312418
0.30719
0.431373
0.383007
0.386928
0.460131
0.373856
0.501961
0.381699
0.397386
0.443137
0.402614
0.47451
0.511111
0.267974
0.503268
0.486275
0.488889
0.431373
0.240523
0.201307
0.326797
0.4
0.39085
0.284967
0.257516
0.300654
0.413072
0.386928
0.398693
0.419608
0.435294
0.413072
0.440523
0.356863
0.437908
0.457516
0.380392
0.419608
0.410458
0.4
0.388235
0.486275
0.49281
0.499346
0.448366
0.460131
0.402614
0.460131
0.377778
0.279739
0.320261
0.27451
0.388235
0.309804
0.379085
0.20915
0.318954
0.456209
0.339869
0.324183
0.299346
0.403922
0.341176
0.294118
0.256209
0.388235
0.354248
0.398693
0.375163
0.381699
0.388235
0.371242
0.422222
0.426144
0.419608
0.413072
0.416993
0.343791
0.376471
0.402614
0.356863
0.405229
0.392157
0.381699
0.345098
0.359477
0.439216
0.380392
0.444444
0.384314
0.402614
0.377778
0.384314
0.4
0.364706
0.393464
0.352941
0.392157
0.394771
0.40915
0.411765
0.403922
0.39085
0.403922
0.397386
0.375163
0.360784
0.413072
0.377778
0.355556
0.407843
0.405229
0.368627
0.396078
0.363399
0.394771
0.389542
0.4
0.385621
0.39085
0.398693
0.394771
0.383007
0.405229
0.436601
0.394771
0.389542
0.437908
0.381699
0.376471
0.373856
0.383007
0.40915
0.355556
0.406536
0.418301
0.4
0.392157
0.397386
0.393464
0.406536
0.381699
0.379085
0.388235
0.4
0.397386
0.414379
0.40915
0.393464
0.396078
0.39085
0.4
0.386928
0.428758
0.389542
0.4
0.4
0.386928
0.394771
0.394771
0.402614
0.396078
0.371242
0.389542
0.388235
0.392157
0.402614
0.4
0.388235
0.296732
0.537255
0.375163
0.36732
0.351634
0.312418
0.384314
0.312418
0.339869
0.410458
0.471895
0.477124
0.420915
0.394771
0.389542
0.384314
0.479739
0.44183
0.360784
0.355556
0.420915
0.449673
0.529412
0.60915
0.563399
0.475817
0.444444
0.308497
0.496732
0.35817
0.363399
0.4
0.363399
0.418301
0.439216
0.324183
0.377778
0.380392
0.222222
0.458824
0.34902
0.2
0.247059
0.424837
0.257516
0.27451
0.394771
0.301961
0.282353
0.471895
0.277124
0.439216
0.194771
0.223529
0.248366
0.379085
0.324183
0.27451
0.243137
0.301961
0.299346
0.300654
0.249673
0.282353
0.366013
0.371242
0.424837
0.479739
0.499346
0.423529
0.43268
0.239216
0.223529
0.407843
0.449673
0.521569
0.311111
0.355556
0.227451
0.291503
0.484967
0.355556
0.269281
0.183007
0.326797
0.2
0.181699
0.206536
0.313725
0.181699
0.305882
0.403922
0.315033
0.186928
0.366013
0.222222
0.383007
0.318954
0.172549
0.188235
0.216993
0.384314
0.202614
0.287582
0.189542
0.271895
0.257516
0.166013
0.14902
0.258824
0.184314
0.28366
0.379085
0.394771
0.435294
0.386928
0.388235
0.386928
0.403922
0.383007
0.423529
0.411765
0.406536
0.407843
0.415686
0.481046
0.4
0.368627
0.369935
0.40915
0.345098
0.383007
0.354248
0.381699
0.416993
0.406536
0.439216
0.342484
0.428758
0.277124
0.475817
0.31634
0.420915
0.389542
0.227451
0.347712
0.375163
0.193464
0.185621
0.332026
0.346405
0.396078
0.420915
0.275817
0.392157
0.281046
0.207843
0.179085
0.183007
0.376471
0.449673
0.397386
0.368627
0.376471
0.406536
0.398693
0.389542
0.394771
0.439216
0.420915
0.431373
0.397386
0.394771
0.4
0.410458
0.223529
0.264052
0.411765
0.40915
0.397386
0.401307
0.415686
0.388235
0.398693
0.401307
0.402614
0.375163
0.380392
0.380392
0.350327
0.40915
0.332026
0.381699
0.424837
0.381699
0.406536
0.413072
0.309804
0.383007
0.373856
0.4
0.396078
0.402614
0.386928
0.318954
0.424837
0.381699
0.530719
0.372549
0.39085
0.372549
0.334641
0.380392
0.24183
0.402614
0.420915
0.31634
0.466667
0.338562
0.402614
0.373856
0.379085
0.419608
0.392157
0.486275
0.383007
0.407843
0.430065
0.388235
0.366013
0.355556
0.401307
0.447059
0.373856
0.403922
0.359477
0.419608
0.40915
0.248366
0.271895
0.381699
0.377778
0.245752
0.401307
0.422222
0.386928
0.322876
0.383007
0.389542
0.291503
0.373856
0.449673
0.397386
0.406536
0.423529
0.354248
0.393464
0.401307
0.345098
0.402614
0.428758
0.381699
0.419608
0.435294
0.386928
0.180392
0.186928
0.397386
0.313725
0.198693
0.396078
0.201307
0.181699
0.460131
0.350327
0.39085
0.405229
0.193464
0.338562
0.258824
0.416993
0.424837
0.290196
0.31634
0.453595
0.377778
0.458824
0.469281
0.375163
0.381699
0.23268
0.433987
0.413072
0.423529
0.407843
0.371242
0.318954
0.4
0.364706
0.383007
0.47451
0.552941
0.481046
0.411765
0.426144
0.402614
0.228758
0.457516
0.481046
0.298039
0.261438
0.202614
0.27451
0.345098
0.428758
0.401307
0.347712
0.375163
0.228758
0.320261
0.321569
0.201307
0.384314
0.291503
0.628758
0.215686
0.369935
0.177778
0.265359
0.74902
0.583007
0.776471
0.19085
0.205229
0.368627
0.369935
0.356863
0.301961
0.282353
0.454902
0.290196
0.504575
0.461438
0.467974
0.364706
0.406536
0.444444
0.265359
0.339869
0.218301
0.471895
0.433987
0.487582
0.457516
0.48366
0.379085
0.460131
0.440523
0.460131
0.413072
0.363399
0.386928
0.437908
0.312418
0.339869
0.449673
0.35817
0.430065
0.381699
0.380392
0.267974
0.369935
0.383007
0.375163
0.393464
0.381699
0.329412
0.389542
0.377778
0.282353
0.284967
0.376471
0.533333
0.398693
0.411765
0.354248
0.376471
0.439216
0.416993
0.359477
0.410458
0.406536
0.369935
0.379085
0.562092
0.528105
0.393464
0.406536
0.406536
0.415686
0.377778
0.407843
0.419608
0.401307
0.380392
0.393464
0.381699
0.39085
0.329412
0.380392
0.384314
0.398693
0.426144
0.4
0.388235
0.321569
0.386928
0.193464
0.389542
0.334641
0.369935
0.398693
0.467974
0.407843
0.401307
0.397386
0.398693
0.393464
0.406536
0.398693
0.439216
0.402614
0.403922
0.333333
0.445752
0.416993
0.398693
0.426144
0.375163
0.415686
0.422222
0.422222
0.428758
0.352941
0.381699
0.350327
0.389542
0.393464
0.375163
0.337255
0.369935
0.386928
0.376471
0.418301
0.372549
0.354248
0.380392
0.401307
0.329412
0.372549
0.321569
0.383007
0.414379
0.396078
0.398693
0.433987
0.413072
0.415686
0.375163
0.267974
0.375163
0.410458
0.428758
0.384314
0.396078
0.406536
0.456209
0.4
0.401307
0.355556
0.444444
0.2
0.184314
0.192157
0.371242
0.266667
0.261438
0.189542
0.271895
0.192157
0.193464
0.410458
0.363399
0.338562
0.392157
0.305882
0.384314
0.39085
0.414379
0.469281
0.397386
0.420915
0.34902
0.315033
0.366013
0.342484
0.388235
0.368627
0.372549
0.376471
0.286275
0.415686
0.403922
0.333333
0.426144
0.490196
0.375163
0.407843
0.371242
0.40915
0.43268
0.253595
0.313725
0.304575
0.193464
0.277124
0.371242
0.430065
0.51634
0.419608
0.469281
0.430065
0.430065
0.464052
0.424837
0.34902
0.396078
0.389542
0.397386
0.326797
0.423529
0.185621
0.219608
0.371242
0.215686
0.267974
0.216993
0.321569
0.392157
0.402614
0.355556
0.427451
0.19085
0.362092
0.383007
0.388235
0.386928
0.379085
0.392157
0.532026
0.410458
0.418301
0.376471
0.362092
0.396078
0.556863
0.452288
0.453595
0.415686
0.51634
0.403922
0.48366
0.437908
0.547712
0.339869
0.498039
0.669281
0.426144
0.520261
0.406536
0.496732
0.469281
0.439216
0.484967
0.402614
0.488889
0.439216
0.375163
0.515033
0.332026
0.478431
0.487582
0.454902
0.448366
0.436601
0.444444
0.465359
0.430065
0.311111
0.411765
0.415686
0.389542
0.31634
0.339869
0.389542
0.413072
0.488889
0.397386
0.436601
0.48366
0.495425
0.389542
0.237908
0.19085
0.419608
0.332026
0.214379
0.388235
0.377778
0.430065
0.363399
0.494118
0.287582
0.298039
0.215686
0.427451
0.371242
0.228758
0.193464
0.452288
0.343791
0.220915
0.335948
0.177778
0.279739
0.159477
0.482353
0.163399
0.201307
0.233987
0.453595
0.244444
0.210458
0.545098
0.222222
0.29281
0.270588
0.235294
0.193464
0.173856
0.284967
0.301961
0.179085
0.328105
0.179085
0.427451
0.36732
0.471895
0.415686
0.39085
0.386928
0.416993
0.36732
0.433987
0.342484
0.373856
0.385621
0.427451
0.481046
0.410458
0.482353
0.447059
0.375163
0.444444
0.515033
0.484967
0.422222
0.435294
0.448366
0.45098
0.424837
0.418301
0.465359
0.326797
0.35817
0.426144
0.372549
0.36732
0.407843
0.393464
0.428758
0.413072
0.456209
0.328105
0.335948
0.380392
0.40915
0.411765
0.32549
0.396078
0.402614
0.406536
0.419608
0.430065
0.430065
0.335948
0.44183
0.411765
0.435294
0.371242
0.440523
0.389542
0.436601
0.4
0.435294
0.426144
0.393464
0.464052
0.386928
0.427451
0.518954
0.471895
0.503268
0.488889
0.496732
0.418301
0.360784
0.401307
0.388235
0.501961
0.469281
0.403922
0.449673
0.398693
0.388235
0.419608
0.545098
0.487582
0.505882
0.36732
0.414379
0.471895
0.458824
0.394771
0.371242
0.363399
0.419608
0.403922
0.469281
0.449673
0.444444
0.379085
0.414379
0.389542
0.35817
0.371242
0.437908
0.394771
0.371242
0.354248
0.32549
0.393464
0.342484
0.401307
0.27451
0.271895
0.392157
0.437908
0.318954
0.413072
0.386928
0.428758
0.257516
0.396078
0.205229
0.258824
0.329412
0.2
0.261438
0.275817
0.324183
0.372549
0.413072
0.337255
0.410458
0.406536
0.413072
0.423529
0.413072
0.423529
0.433987
0.403922
0.406536
0.397386
0.40915
0.398693
0.414379
0.4
0.413072
0.414379
0.418301
0.393464
0.386928
0.410458
0.410458
0.413072
0.402614
0.40915
0.354248
0.329412
0.275817
0.328105
0.34902
0.397386
0.398693
0.397386
0.393464
0.402614
0.313725
0.351634
0.359477
0.381699
0.376471
0.321569
0.394771
0.32549
0.398693
0.397386
0.396078
0.39085
0.389542
0.34902
0.411765
0.333333
0.39085
0.351634
0.406536
0.386928
0.397386
0.394771
0.448366
0.414379
0.381699
0.36732
0.355556
0.392157
0.396078
0.381699
0.397386
0.418301
0.39085
0.402614
0.398693
0.410458
0.389542
0.393464
0.385621
0.356863
0.377778
0.426144
0.321569
0.490196
0.368627
0.490196
0.369935
0.299346
0.389542
0.453595
0.428758
0.379085
0.407843
0.437908
0.419608
0.419608
0.402614
0.44183
0.443137
0.4
0.443137
0.379085
0.414379
0.377778
0.337255
0.375163
0.398693
0.359477
0.380392
0.389542
0.397386
0.377778
0.34902
0.329412
0.403922
0.394771
0.372549
0.362092
0.337255
0.366013
0.405229
0.315033
0.371242
0.334641
0.346405
0.329412
0.355556
0.362092
0.34902
0.385621
0.4
0.339869
0.398693
0.394771
0.269281
0.397386
0.326797
0.384314
0.333333
0.396078
0.403922
0.385621
0.397386
0.377778
0.396078
0.397386
0.4
0.377778
0.384314
0.397386
0.39085
0.402614
0.377778
0.369935
0.326797
0.398693
0.355556
0.414379
0.356863
0.335948
0.384314
0.381699
0.369935
0.394771
0.394771
0.402614
0.385621
0.402614
0.388235
0.39085
0.385621
0.388235
0.394771
0.377778
0.410458
0.388235
0.389542
0.396078
0.383007
0.368627
0.392157
0.383007
0.384314
0.386928
0.386928
0.364706
0.386928
0.376471
0.379085
0.362092
0.396078
0.373856
0.416993
0.418301
0.380392
0.354248
0.377778
0.392157
0.418301
0.430065
0.402614
0.405229
0.388235
0.410458
0.413072
0.424837
0.413072
0.394771
0.39085
0.392157
0.40915
0.393464
0.396078
0.385621
0.392157
0.386928
0.386928
0.376471
0.36732
0.363399
0.415686
0.381699
0.405229
0.377778
0.379085
0.363399
0.467974
0.44183
0.386928
0.366013
0.407843
0.383007
0.369935
0.388235
0.416993
0.338562
0.381699
0.388235
0.386928
0.383007
0.426144
0.380392
0.478431
0.346405
0.379085
0.388235
0.393464
0.388235
0.385621
0.355556
0.371242
0.354248
0.375163
0.388235
0.376471
0.385621
0.380392
0.379085
0.375163
0.385621
0.376471
0.386928
0.381699
0.377778
0.39085
0.375163
0.386928
0.375163
0.401307
0.392157
0.380392
0.388235
0.393464
0.36732
0.381699
0.381699
0.411765
0.386928
0.396078
0.397386
0.394771
0.406536
0.392157
0.402614
0.393464
0.4
0.394771
0.397386
0.401307
0.402614
0.410458
0.4
0.386928
0.388235
0.407843
0.389542
0.393464
0.403922
0.39085
0.410458
0.392157
0.402614
0.393464
0.396078
0.403922
0.39085
0.398693
0.402614
0.4
0.397386
0.405229
0.398693
0.389542
0.402614
0.386928
0.385621
0.393464
0.380392
0.392157
0.4
0.394771
0.405229
0.39085
0.406536
0.401307
0.389542
0.39085
0.4
0.388235
0.393464
0.407843
0.398693
0.396078
0.397386
0.39085
0.403922
0.4
0.394771
0.411765
0.403922
0.402614
0.402614
0.39085
0.411765
0.402614
0.39085
0.407843
0.385621
0.379085
0.389542
0.401307
0.401307
0.392157
0.381699
0.388235
0.405229
0.393464
0.393464
0.34902
0.389542
0.433987
0.392157
0.433987
0.43268
0.577778
0.484967
0.490196
0.466667
0.552941
0.473203
0.407843
0.466667
0.572549
0.556863
0.397386
0.39085
0.350327
0.393464
0.352941
0.396078
0.392157
0.398693
0.418301
0.351634
0.405229
0.39085
0.397386
0.414379
0.402614
0.393464
0.407843
0.397386
0.401307
0.385621
0.4
0.403922
0.4
0.396078
0.386928
0.407843
0.4
0.466667
0.40915
0.40915
0.4
0.386928
0.402614
0.386928
0.396078
0.398693
0.381699
0.385621
0.398693
0.346405
0.394771
0.371242
0.392157
0.363399
0.4
0.405229
0.394771
0.402614
0.394771
0.398693
0.393464
0.389542
0.342484
0.385621
0.360784
0.394771
0.449673
0.410458
0.464052
0.471895
0.424837
0.569935
0.401307
0.464052
0.416993
0.484967
0.473203
0.403922
0.401307
0.393464
0.420915
0.461438
0.477124
0.418301
0.431373
0.543791
0.330719
0.411765
0.334641
0.366013
0.414379
0.313725
0.34902
0.334641
0.393464
0.385621
0.508497
0.277124
0.49281
0.416993
0.473203
0.375163
0.240523
0.35817
0.448366
0.396078
0.460131
0.386928
0.410458
0.295425
0.350327
0.194771
0.20915
0.290196
0.264052
0.270588
0.416993
0.453595
0.27451
0.428758
0.335948
0.447059
0.508497
0.445752
0.375163
0.486275
0.334641
0.481046
0.490196
0.396078
0.346405
0.383007
0.299346
0.461438
0.427451
0.282353
0.504575
0.322876
0.487582
0.27451
0.347712
0.341176
0.43268
0.256209
0.244444
0.601307
0.228758
0.505882
0.423529
0.490196
0.34902
0.517647
0.414379
0.384314
0.380392
0.524183
0.317647
0.623529
0.443137
0.324183
0.508497
0.628758
0.388235
0.496732
0.508497
0.534641
0.52549
0.273203
0.457516
0.486275
0.583007
0.380392
0.515033
0.491503
0.481046
0.430065
0.43268
0.351634
0.431373
0.509804
0.51634
0.471895
0.579085
0.253595
0.32549
0.356863
0.271895
0.355556
0.252288
0.296732
0.253595
0.346405
0.359477
0.448366
0.372549
0.384314
0.20915
0.401307
0.240523
0.345098
0.436601
0.431373
0.403922
0.457516
0.461438
0.423529
0.433987
0.393464
0.410458
0.385621
0.407843
0.488889
0.393464
0.402614
0.457516
0.426144
0.398693
0.394771
0.405229
0.383007
0.243137
0.392157
0.330719
0.396078
0.39085
0.394771
0.392157
0.405229
0.381699
0.422222
0.402614
0.396078
0.413072
0.401307
0.39085
0.398693
0.394771
0.386928
0.402614
0.383007
0.394771
0.397386
0.394771
0.388235
0.347712
0.426144
0.371242
0.258824
0.257516
0.375163
0.381699
0.384314
0.371242
0.385621
0.396078
0.389542
0.396078
0.396078
0.294118
0.405229
0.393464
0.401307
0.388235
0.430065
0.389542
0.366013
0.277124
0.372549
0.31634
0.267974
0.355556
0.332026
0.466667
0.257516
0.322876
0.352941
0.373856
0.419608
0.298039
0.282353
0.343791
0.372549
0.30719
0.328105
0.436601
0.428758
0.333333
0.490196
0.354248
0.343791
0.414379
0.320261
0.424837
0.286275
0.419608
0.416993
0.473203
0.410458
0.414379
0.214379
0.2
0.407843
0.386928
0.210458
0.198693
0.27451
0.261438
0.277124
0.354248
0.350327
0.290196
0.363399
0.25098
0.426144
0.296732
0.34902
0.334641
0.366013
0.364706
0.332026
0.295425
0.284967
0.295425
0.262745
0.197386
0.298039
0.202614
0.213072
0.211765
0.211765
0.254902
0.245752
0.222222
0.279739
0.295425
0.290196
0.28366
0.335948
0.443137
0.295425
0.341176
0.271895
0.260131
0.384314
0.440523
0.364706
0.415686
0.383007
0.377778
0.406536
0.352941
0.368627
0.270588
0.335948
0.290196
0.332026
0.377778
0.403922
0.23268
0.315033
0.356863
0.454902
0.478431
0.50719
0.4
0.360784
0.457516
0.24183
0.288889
0.305882
0.244444
0.245752
0.377778
0.366013
0.440523
0.284967
0.433987
0.462745
0.282353
0.32549
0.257516
0.423529
0.501961
0.471895
0.505882
0.389542
0.406536
0.428758
0.397386
0.389542
0.383007
0.380392
0.347712
0.385621
0.511111
0.415686
0.380392
0.503268
0.499346
0.45098
0.406536
0.384314
0.428758
0.418301
0.430065
0.554248
0.318954
0.517647
0.500654
0.45098
0.500654
0.411765
0.419608
0.394771
0.416993
0.449673
0.385621
0.324183
0.294118
0.334641
0.266667
0.322876
0.339869
0.347712
0.40915
0.456209
0.36732
0.332026
0.252288
0.231373
0.380392
0.456209
0.262745
0.422222
0.407843
0.440523
0.359477
0.439216
0.360784
0.501961
0.44183
0.411765
0.430065
0.2
0.224837
0.244444
0.216993
0.308497
0.298039
0.466667
0.532026
0.435294
0.386928
0.490196
0.512418
0.339869
0.376471
0.380392
0.265359
0.313725
0.290196
0.219608
0.300654
0.267974
0.398693
0.329412
0.364706
0.35817
0.403922
0.309804
0.277124
0.299346
0.233987
0.237908
0.254902
0.269281
0.29281
0.294118
0.281046
0.291503
0.162092
0.211765
0.290196
0.164706
0.270588
0.31634
0.210458
0.159477
0.194771
0.205229
0.235294
0.24183
0.25098
0.237908
0.328105
0.197386
0.273203
0.197386
0.176471
0.196078
0.202614
0.175163
0.189542
0.235294
0.198693
0.247059
0.20915
0.284967
0.258824
0.334641
0.433987
0.35817
0.298039
0.377778
0.341176
0.419608
0.150327
0.186928
0.168627
0.172549
0.313725
0.249673
0.231373
0.243137
0.440523
0.371242
0.439216
0.415686
0.385621
0.402614
0.377778
0.389542
0.381699
0.360784
0.389542
0.396078
0.386928
0.355556
0.388235
0.360784
0.383007
0.359477
0.371242
0.444444
0.39085
0.381699
0.372549
0.416993
0.343791
0.330719
0.413072
0.360784
0.362092
0.448366
0.401307
0.414379
0.385621
0.379085
0.389542
0.379085
0.384314
0.373856
0.403922
0.464052
0.401307
0.447059
0.401307
0.373856
0.415686
0.354248
0.392157
0.354248
0.398693
0.368627
0.347712
0.269281
0.440523
0.445752
0.443137
0.444444
0.439216
0.4
0.44183
0.389542
0.405229
0.356863
0.426144
0.362092
0.397386
0.402614
0.469281
0.354248
0.406536
0.402614
0.426144
0.411765
0.402614
0.396078
0.381699
0.397386
0.377778
0.416993
0.422222
0.448366
0.45098
0.398693
0.405229
0.368627
0.392157
0.375163
0.403922
0.405229
0.376471
0.389542
0.422222
0.413072
0.401307
0.403922
0.389542
0.414379
0.373856
0.402614
0.386928
0.386928
0.422222
0.397386
0.423529
0.419608
0.414379
0.392157
0.369935
0.298039
0.389542
0.369935
0.371242
0.376471
0.4
0.371242
0.419608
0.424837
0.45098
0.407843
0.416993
0.369935
0.422222
0.215686
0.388235
0.265359
0.16732
0.375163
0.321569
0.396078
0.4
0.224837
0.376471
0.201307
0.326797
0.237908
0.469281
0.320261
0.419608
0.32549
0.379085
0.332026
0.397386
0.347712
0.288889
0.189542
0.373856
0.445752
0.375163
0.291503
0.410458
0.202614
0.407843
0.343791
0.384314
0.403922
0.405229
0.405229
0.392157
0.381699
0.384314
0.393464
0.372549
0.375163
0.402614
0.380392
0.385621
0.373856
0.406536
0.39085
0.385621
0.383007
0.394771
0.373856
0.383007
0.380392
0.383007
0.380392
0.379085
0.393464
0.380392
0.383007
0.389542
0.385621
0.383007
0.32549
0.381699
0.394771
0.384314
0.411765
0.394771
0.326797
0.396078
0.375163
0.376471
0.392157
0.389542
0.426144
0.364706
0.381699