# vtk DataFile Version 1.0
Unstructured Grid Example
ASCII

DATASET UNSTRUCTURED_GRID
POINTS 22065 float
13 513 0
14 513 0
21 513 0
23 513 0
24 513 0
25 513 0
27 513 0
28 513 0
29 513 0
30 513 0
31 513 0
32 513 0
33 513 0
34 513 0
35 513 0
43 513 0
44 513 0
45 513 0
63 513 0
64 513 0
66 513 0
67 513 0
68 513 0
69 513 0
71 513 0
72 513 0
73 513 0
74 513 0
75 513 0
76 513 0
77 513 0
78 513 0
79 513 0
80 513 0
83 513 0
84 513 0
85 513 0
86 513 0
88 513 0
89 513 0
90 513 0
91 513 0
92 513 0
93 513 0
347 513 0
348 513 0
349 513 0
350 513 0
351 513 0
352 513 0
356 513 0
357 513 0
358 513 0
359 513 0
360 513 0
361 513 0
362 513 0
363 513 0
364 513 0
365 513 0
367 513 0
368 513 0
369 513 0
370 513 0
371 513 0
372 513 0
373 513 0
374 513 0
375 513 0
378 513 0
379 513 0
381 513 0
382 513 0
383 513 0
384 513 0
385 513 0
386 513 0
390 513 0
391 513 0
392 513 0
393 513 0
394 513 0
395 513 0
400 513 0
401 513 0
402 513 0
403 513 0
404 513 0
405 513 0
406 513 0
407 513 0
408 513 0
409 513 0
410 513 0
411 513 0
412 513 0
413 513 0
414 513 0
415 513 0
416 513 0
417 513 0
418 513 0
419 513 0
420 513 0
421 513 0
422 513 0
423 513 0
424 513 0
425 513 0
426 513 0
428 513 0
429 513 0
436 513 0
437 513 0
443 513 0
444 513 0
445 513 0
452 513 0
453 513 0
454 513 0
461 513 0
462 513 0
464 513 0
466 513 0
467 513 0
469 513 0
470 513 0
471 513 0
472 513 0
473 513 0
482 513 0
483 513 0
484 513 0
485 513 0
486 513 0
487 513 0
488 513 0
490 513 0
491 513 0
492 513 0
493 513 0
494 513 0
495 513 0
497 513 0
498 513 0
499 513 0
500 513 0
502 513 0
503 513 0
504 513 0
505 513 0
506 513 0
14 512 0
15 512 0
16 512 0
19 512 0
20 512 0
21 512 0
22 512 0
23 512 0
24 512 0
25 512 0
26 512 0
27 512 0
28 512 0
29 512 0
30 512 0
31 512 0
32 512 0
34 512 0
35 512 0
63 512 0
66 512 0
67 512 0
68 512 0
70 512 0
71 512 0
73 512 0
74 512 0
75 512 0
76 512 0
77 512 0
78 512 0
79 512 0
80 512 0
81 512 0
82 512 0
84 512 0
85 512 0
86 512 0
357 512 0
358 512 0
359 512 0
360 512 0
361 512 0
362 512 0
365 512 0
366 512 0
367 512 0
368 512 0
369 512 0
370 512 0
371 512 0
372 512 0
373 512 0
374 512 0
375 512 0
380 512 0
381 512 0
382 512 0
383 512 0
384 512 0
385 512 0
386 512 0
387 512 0
388 512 0
389 512 0
390 512 0
391 512 0
392 512 0
393 512 0
394 512 0
395 512 0
400 512 0
401 512 0
402 512 0
403 512 0
404 512 0
408 512 0
409 512 0
410 512 0
413 512 0
414 512 0
426 512 0
427 512 0
428 512 0
430 512 0
431 512 0
432 512 0
433 512 0
434 512 0
435 512 0
436 512 0
437 512 0
445 512 0
446 512 0
452 512 0
453 512 0
454 512 0
462 512 0
463 512 0
464 512 0
465 512 0
466 512 0
467 512 0
482 512 0
483 512 0
484 512 0
485 512 0
486 512 0
488 512 0
490 512 0
491 512 0
492 512 0
493 512 0
494 512 0
495 512 0
496 512 0
497 512 0
498 512 0
499 512 0
500 512 0
501 512 0
13 511 0
14 511 0
15 511 0
16 511 0
19 511 0
22 511 0
26 511 0
27 511 0
28 511 0
29 511 0
31 511 0
32 511 0
33 511 0
34 511 0
35 511 0
62 511 0
63 511 0
66 511 0
67 511 0
68 511 0
69 511 0
70 511 0
72 511 0
73 511 0
74 511 0
75 511 0
76 511 0
77 511 0
78 511 0
79 511 0
80 511 0
81 511 0
82 511 0
84 511 0
85 511 0
86 511 0
87 511 0
89 511 0
90 511 0
369 511 0
370 511 0
371 511 0
372 511 0
373 511 0
374 511 0
375 511 0
380 511 0
381 511 0
382 511 0
383 511 0
384 511 0
385 511 0
386 511 0
387 511 0
390 511 0
391 511 0
392 511 0
393 511 0
394 511 0
395 511 0
396 511 0
397 511 0
398 511 0
399 511 0
400 511 0
401 511 0
402 511 0
403 511 0
404 511 0
405 511 0
406 511 0
408 511 0
410 511 0
425 511 0
426 511 0
427 511 0
428 511 0
430 511 0
431 511 0
432 511 0
434 511 0
435 511 0
439 511 0
440 511 0
445 511 0
446 511 0
452 511 0
453 511 0
454 511 0
464 511 0
465 511 0
466 511 0
467 511 0
468 511 0
469 511 0
470 511 0
482 511 0
483 511 0
484 511 0
488 511 0
489 511 0
490 511 0
491 511 0
492 511 0
494 511 0
495 511 0
496 511 0
497 511 0
498 511 0
499 511 0
500 511 0
501 511 0
504 511 0
505 511 0
506 511 0
12 510 0
13 510 0
19 510 0
22 510 0
26 510 0
27 510 0
28 510 0
29 510 0
32 510 0
33 510 0
34 510 0
35 510 0
61 510 0
62 510 0
66 510 0
68 510 0
69 510 0
70 510 0
71 510 0
72 510 0
73 510 0
75 510 0
77 510 0
79 510 0
81 510 0
82 510 0
83 510 0
84 510 0
85 510 0
86 510 0
87 510 0
89 510 0
90 510 0
91 510 0
385 510 0
386 510 0
387 510 0
388 510 0
389 510 0
390 510 0
391 510 0
392 510 0
393 510 0
394 510 0
400 510 0
401 510 0
402 510 0
403 510 0
404 510 0
405 510 0
406 510 0
407 510 0
408 510 0
409 510 0
410 510 0
423 510 0
424 510 0
425 510 0
426 510 0
427 510 0
428 510 0
429 510 0
430 510 0
431 510 0
432 510 0
434 510 0
435 510 0
439 510 0
440 510 0
445 510 0
446 510 0
447 510 0
449 510 0
450 510 0
451 510 0
452 510 0
463 510 0
464 510 0
465 510 0
469 510 0
470 510 0
482 510 0
483 510 0
490 510 0
491 510 0
492 510 0
495 510 0
496 510 0
497 510 0
498 510 0
500 510 0
501 510 0
504 510 0
505 510 0
506 510 0
507 510 0
11 509 0
12 509 0
17 509 0
18 509 0
19 509 0
21 509 0
22 509 0
23 509 0
24 509 0
25 509 0
26 509 0
27 509 0
28 509 0
29 509 0
30 509 0
32 509 0
33 509 0
34 509 0
35 509 0
57 509 0
58 509 0
60 509 0
61 509 0
66 509 0
67 509 0
68 509 0
69 509 0
70 509 0
71 509 0
73 509 0
75 509 0
77 509 0
79 509 0
81 509 0
82 509 0
83 509 0
86 509 0
87 509 0
89 509 0
90 509 0
91 509 0
389 509 0
390 509 0
391 509 0
392 509 0
393 509 0
394 509 0
395 509 0
396 509 0
397 509 0
398 509 0
399 509 0
400 509 0
401 509 0
402 509 0
404 509 0
405 509 0
408 509 0
411 509 0
412 509 0
413 509 0
414 509 0
415 509 0
416 509 0
417 509 0
423 509 0
424 509 0
425 509 0
426 509 0
427 509 0
429 509 0
430 509 0
431 509 0
447 509 0
448 509 0
449 509 0
450 509 0
451 509 0
452 509 0
463 509 0
464 509 0
465 509 0
466 509 0
467 509 0
469 509 0
470 509 0
482 509 0
483 509 0
484 509 0
485 509 0
487 509 0
488 509 0
489 509 0
490 509 0
491 509 0
492 509 0
493 509 0
494 509 0
495 509 0
496 509 0
497 509 0
498 509 0
505 509 0
506 509 0
507 509 0
11 508 0
15 508 0
16 508 0
17 508 0
18 508 0
21 508 0
22 508 0
23 508 0
25 508 0
26 508 0
27 508 0
28 508 0
29 508 0
30 508 0
32 508 0
33 508 0
34 508 0
35 508 0
56 508 0
57 508 0
58 508 0
60 508 0
64 508 0
65 508 0
66 508 0
67 508 0
68 508 0
69 508 0
71 508 0
72 508 0
73 508 0
75 508 0
77 508 0
78 508 0
79 508 0
82 508 0
83 508 0
84 508 0
85 508 0
86 508 0
89 508 0
90 508 0
91 508 0
398 508 0
399 508 0
404 508 0
405 508 0
406 508 0
407 508 0
408 508 0
409 508 0
410 508 0
411 508 0
412 508 0
413 508 0
414 508 0
415 508 0
417 508 0
418 508 0
419 508 0
420 508 0
421 508 0
422 508 0
423 508 0
424 508 0
425 508 0
426 508 0
427 508 0
428 508 0
429 508 0
430 508 0
431 508 0
432 508 0
438 508 0
439 508 0
440 508 0
448 508 0
449 508 0
464 508 0
465 508 0
466 508 0
467 508 0
468 508 0
469 508 0
470 508 0
482 508 0
483 508 0
484 508 0
485 508 0
486 508 0
487 508 0
488 508 0
490 508 0
491 508 0
492 508 0
493 508 0
494 508 0
495 508 0
496 508 0
11 507 0
12 507 0
13 507 0
15 507 0
16 507 0
17 507 0
18 507 0
21 507 0
23 507 0
25 507 0
26 507 0
27 507 0
28 507 0
29 507 0
30 507 0
32 507 0
33 507 0
34 507 0
35 507 0
56 507 0
57 507 0
58 507 0
59 507 0
60 507 0
61 507 0
63 507 0
64 507 0
65 507 0
66 507 0
67 507 0
68 507 0
69 507 0
71 507 0
72 507 0
73 507 0
75 507 0
76 507 0
77 507 0
83 507 0
84 507 0
85 507 0
86 507 0
347 507 0
348 507 0
349 507 0
350 507 0
352 507 0
353 507 0
356 507 0
357 507 0
358 507 0
359 507 0
360 507 0
362 507 0
363 507 0
411 507 0
412 507 0
413 507 0
414 507 0
415 507 0
416 507 0
417 507 0
418 507 0
419 507 0
420 507 0
421 507 0
422 507 0
423 507 0
424 507 0
425 507 0
430 507 0
431 507 0
432 507 0
433 507 0
434 507 0
435 507 0
436 507 0
437 507 0
438 507 0
439 507 0
440 507 0
462 507 0
463 507 0
464 507 0
465 507 0
466 507 0
468 507 0
469 507 0
470 507 0
481 507 0
482 507 0
484 507 0
490 507 0
491 507 0
492 507 0
493 507 0
494 507 0
495 507 0
11 506 0
12 506 0
13 506 0
14 506 0
15 506 0
16 506 0
17 506 0
18 506 0
20 506 0
21 506 0
22 506 0
23 506 0
24 506 0
25 506 0
26 506 0
27 506 0
28 506 0
29 506 0
30 506 0
32 506 0
33 506 0
34 506 0
57 506 0
60 506 0
61 506 0
63 506 0
64 506 0
65 506 0
66 506 0
67 506 0
68 506 0
71 506 0
72 506 0
74 506 0
75 506 0
76 506 0
77 506 0
83 506 0
84 506 0
86 506 0
347 506 0
348 506 0
349 506 0
350 506 0
352 506 0
353 506 0
356 506 0
357 506 0
358 506 0
359 506 0
360 506 0
362 506 0
363 506 0
369 506 0
370 506 0
420 506 0
421 506 0
422 506 0
423 506 0
424 506 0
425 506 0
426 506 0
427 506 0
428 506 0
429 506 0
430 506 0
431 506 0
432 506 0
433 506 0
434 506 0
435 506 0
436 506 0
437 506 0
439 506 0
440 506 0
441 506 0
442 506 0
443 506 0
444 506 0
445 506 0
446 506 0
447 506 0
448 506 0
449 506 0
450 506 0
451 506 0
452 506 0
462 506 0
463 506 0
464 506 0
466 506 0
467 506 0
468 506 0
469 506 0
470 506 0
481 506 0
482 506 0
484 506 0
492 506 0
493 506 0
14 505 0
15 505 0
16 505 0
17 505 0
18 505 0
20 505 0
21 505 0
22 505 0
23 505 0
24 505 0
25 505 0
28 505 0
29 505 0
30 505 0
54 505 0
55 505 0
56 505 0
57 505 0
61 505 0
62 505 0
63 505 0
64 505 0
65 505 0
66 505 0
67 505 0
72 505 0
73 505 0
74 505 0
75 505 0
86 505 0
348 505 0
349 505 0
350 505 0
369 505 0
370 505 0
384 505 0
385 505 0
386 505 0
388 505 0
389 505 0
430 505 0
431 505 0
432 505 0
433 505 0
434 505 0
435 505 0
436 505 0
437 505 0
438 505 0
439 505 0
440 505 0
441 505 0
442 505 0
443 505 0
444 505 0
445 505 0
446 505 0
447 505 0
448 505 0
452 505 0
453 505 0
454 505 0
455 505 0
456 505 0
457 505 0
458 505 0
459 505 0
460 505 0
461 505 0
462 505 0
463 505 0
464 505 0
465 505 0
466 505 0
467 505 0
468 505 0
469 505 0
471 505 0
472 505 0
473 505 0
474 505 0
475 505 0
476 505 0
477 505 0
478 505 0
479 505 0
480 505 0
481 505 0
482 505 0
483 505 0
484 505 0
485 505 0
490 505 0
491 505 0
492 505 0
493 505 0
494 505 0
495 505 0
496 505 0
497 505 0
498 505 0
499 505 0
500 505 0
501 505 0
502 505 0
503 505 0
504 505 0
505 505 0
506 505 0
507 505 0
14 504 0
15 504 0
16 504 0
17 504 0
18 504 0
20 504 0
21 504 0
23 504 0
24 504 0
25 504 0
50 504 0
51 504 0
52 504 0
53 504 0
54 504 0
55 504 0
56 504 0
61 504 0
62 504 0
63 504 0
64 504 0
65 504 0
67 504 0
68 504 0
72 504 0
73 504 0
74 504 0
75 504 0
76 504 0
86 504 0
348 504 0
[...]
CELL_DATA 22065
COLOR_SCALARS lut 1
0.262414
0.271453
0.32082
0.323479
0.322444
0.319942
0.311052
0.304988
0.298111
0.290646
0.282828
0.274902
0.267119
0.25973
0.252954
0.222144
0.21911
0.215778
0.209967
0.217024
0.230966
0.237349
0.243083
0.248038
0.255361
0.257706
0.259212
0.25995
0.260039
0.259645
0.258952
0.258137
0.257351
0.25671
0.256467
0.257163
0.25836
0.260172
0.266309
0.271056
0.277244
0.285105
0.294843
0.306608
0.266044
0.253883
0.243171
0.233826
0.225737
0.218787
0.200759
0.198328
0.196556
0.195356
0.194652
0.194368
0.194437
0.19479
0.19535
0.196042
0.197525
0.198203
0.198815
0.199368
0.199864
0.200295
0.200639
0.200888
0.201073
0.201783
0.202232
0.203639
0.204597
0.205719
0.207006
0.208446
0.210012
0.216673
0.218215
0.21963
0.220899
0.222009
0.222954
0.224819
0.224534
0.223997
0.223173
0.222002
0.220411
0.218323
0.215688
0.212506
0.20882
0.204718
0.200338
0.195865
0.19151
0.187488
0.183993
0.181175
0.179135
0.177935
0.177596
0.178113
0.179447
0.181526
0.184234
0.187402
0.190817
0.194235
0.200103
0.202134
0.198614
0.197098
0.193222
0.193897
0.19488
0.196569
0.194875
0.19285
0.177715
0.176291
0.1741
0.172101
0.170941
0.168425
0.167319
0.166499
0.166051
0.166014
0.184341
0.188506
0.19283
0.197119
0.201166
0.204786
0.207843
0.21195
0.212887
0.213023
0.212342
0.210883
0.208737
0.202853
0.199341
0.195565
0.191573
0.18301
0.178437
0.173683
0.168791
0.163846
0.278193
0.286606
0.294778
0.315086
0.319622
0.322758
0.324421
0.324607
0.323378
0.320835
0.317097
0.3123
0.306601
0.300184
0.293245
0.285989
0.278635
0.264538
0.25823
0.208668
0.228053
0.233957
0.239265
0.247676
0.250685
0.25434
0.255086
0.255247
0.254987
0.254488
0.253934
0.253478
0.253243
0.253322
0.253796
0.256204
0.258277
0.261066
0.209169
0.207164
0.205751
0.204852
0.204393
0.204301
0.205493
0.206123
0.20675
0.207337
0.207877
0.208378
0.20884
0.209246
0.209563
0.209768
0.20987
0.210216
0.210521
0.210953
0.211526
0.212253
0.213133
0.214148
0.215265
0.216445
0.217648
0.218831
0.219954
0.220986
0.221909
0.222708
0.223377
0.224383
0.224027
0.223452
0.222621
0.221479
0.212482
0.209023
0.205181
0.192846
0.189103
0.196331
0.199508
0.202269
0.205908
0.206669
0.206782
0.206355
0.205526
0.204449
0.203263
0.202076
0.200687
0.201737
0.201579
0.199821
0.197745
0.180208
0.178833
0.177641
0.176526
0.175387
0.174162
0.185652
0.189377
0.193241
0.197061
0.200648
0.206491
0.209965
0.210686
0.210677
0.209926
0.208466
0.206385
0.203792
0.200798
0.197499
0.193967
0.190239
0.186328
0.27806
0.285793
0.293473
0.300871
0.318829
0.326316
0.31847
0.313927
0.308609
0.302672
0.28961
0.282846
0.276187
0.269841
0.263996
0.201589
0.207193
0.22494
0.230363
0.235247
0.239488
0.243024
0.247923
0.249324
0.250098
0.250354
0.250252
0.249975
0.249711
0.249619
0.249826
0.250433
0.251529
0.25549
0.258503
0.262337
0.267133
0.280274
0.289001
0.21827
0.218722
0.219152
0.219534
0.219823
0.219979
0.219993
0.218828
0.218621
0.218501
0.218495
0.218632
0.218921
0.219355
0.219907
0.221932
0.222606
0.223226
0.223771
0.224231
0.224596
0.224859
0.225008
0.225027
0.2249
0.224617
0.224169
0.223534
0.222677
0.221543
0.220063
0.218165
0.212985
0.206152
0.195579
0.198922
0.202116
0.204962
0.209009
0.210092
0.210585
0.210184
0.209537
0.206452
0.205932
0.207467
0.208402
0.207412
0.205559
0.203399
0.181607
0.18032
0.17905
0.177741
0.176411
0.175153
0.174086
0.187214
0.190495
0.19389
0.205335
0.20704
0.208159
0.208657
0.208503
0.206232
0.204226
0.20177
0.198965
0.195896
0.192623
0.189174
0.185552
0.173525
0.169146
0.164667
0.280321
0.287287
0.323243
0.32876
0.32033
0.316044
0.311112
0.30566
0.287567
0.281469
0.275631
0.270224
0.196072
0.200522
0.22171
0.231147
0.235055
0.238334
0.240966
0.242959
0.244341
0.245548
0.245606
0.245964
0.247819
0.249575
0.252002
0.255178
0.259182
0.264119
0.270116
0.285887
0.295992
0.307798
0.226017
0.225852
0.225821
0.225897
0.22605
0.226244
0.226448
0.226632
0.226779
0.226874
0.225823
0.225256
0.224536
0.223626
0.222475
0.221014
0.219178
0.216925
0.214256
0.211207
0.207848
0.192672
0.195604
0.198824
0.202146
0.205375
0.208327
0.210849
0.212845
0.214287
0.215204
0.21575
0.215578
0.213974
0.213676
0.21538
0.21619
0.216914
0.217404
0.216884
0.215796
0.214206
0.18767
0.186033
0.184544
0.179022
0.177952
0.189093
0.19194
0.206702
0.206981
0.206685
0.20245
0.200145
0.197542
0.194717
0.188558
0.185232
0.174064
0.16994
0.16569
0.161402
0.284952
0.291199
0.320753
0.325091
0.328453
0.33187
0.331908
0.330912
0.328991
0.326262
0.322831
0.318792
0.314235
0.309259
0.303964
0.292846
0.287277
0.281906
0.276886
0.188971
0.18901
0.192299
0.195416
0.218476
0.223006
0.227117
0.230727
0.233785
0.236273
0.239596
0.241039
0.241592
0.242721
0.245675
0.248124
0.25135
0.26655
0.273791
0.292276
0.303803
0.317038
0.232334
0.232017
0.23174
0.231477
0.231209
0.230924
0.230613
0.230269
0.229881
0.229434
0.228911
0.228301
0.22759
0.226756
0.224564
0.223092
0.216559
0.207184
0.203817
0.20057
0.197602
0.195054
0.193032
0.191614
0.196833
0.199697
0.202868
0.206182
0.209462
0.215283
0.217589
0.219427
0.225829
0.226097
0.225919
0.225189
0.223896
0.222107
0.192874
0.190964
0.18924
0.187626
0.186074
0.183262
0.182171
0.191377
0.193816
0.196315
0.198736
0.202797
0.204245
0.205247
0.205787
0.205851
0.205419
0.204484
0.203073
0.201254
0.19911
0.196722
0.19415
0.171336
0.1673
0.16319
0.29742
0.319601
0.324448
0.328679
0.332112
0.336479
0.335929
0.334499
0.329492
0.326138
0.322324
0.318119
0.313589
0.308801
0.298733
0.293636
0.288666
0.283955
0.191497
0.190037
0.189647
0.192021
0.206477
0.210971
0.215373
0.219527
0.223323
0.226685
0.231956
0.233858
0.235301
0.237043
0.238145
0.238923
0.240094
0.247356
0.251405
0.256429
0.262514
0.269756
0.299503
0.312471
0.327154
0.233875
0.233121
0.22807
0.226555
0.224746
0.22261
0.220147
0.21739
0.214396
0.211259
0.208104
0.205075
0.202318
0.199958
0.196796
0.196106
0.196045
0.196622
0.197828
0.199633
0.20198
0.204782
0.207913
0.21123
0.214579
0.217808
0.220789
0.223432
0.225697
0.227574
0.232683
0.232924
0.233133
0.236241
0.235827
0.196465
0.194472
0.19264
0.190925
0.189336
0.187934
0.186801
0.194177
0.196248
0.198349
0.200354
0.202137
0.203593
0.204664
0.205598
0.205455
0.204893
0.203909
0.202529
0.200814
0.198839
0.310929
0.316114
0.321143
0.330393
0.334362
0.337684
0.340203
0.342136
0.339114
0.333718
0.330415
0.326796
0.322902
0.318771
0.314434
0.305278
0.300572
0.29591
0.291409
0.192657
0.19084
0.190076
0.190356
0.191641
0.193849
0.200431
0.204389
0.208489
0.212536
0.216382
0.219926
0.223101
0.228203
0.230123
0.231652
0.233756
0.234565
0.235453
0.252302
0.258272
0.265417
0.27383
0.372243
0.357433
0.344202
0.33248
0.313156
0.305345
0.288321
0.284485
0.281416
0.279022
0.277219
0.275046
0.27452
0.216731
0.213753
0.21091
0.208331
0.206134
0.204406
0.203208
0.202581
0.202548
0.203118
0.20429
0.20604
0.208325
0.211071
0.214174
0.230582
0.233297
0.235697
0.237779
0.239553
0.241047
0.242286
0.243285
0.244066
0.244669
0.245163
0.208097
0.205211
0.202638
0.200339
0.198258
0.19463
0.193138
0.191944
0.195979
0.197622
0.201115
0.206294
0.20595
0.20526
0.204228
0.202879
0.20127
0.325467
0.330169
0.334592
0.338674
0.342327
0.345433
0.347858
0.349475
0.350014
0.348993
0.347249
0.344923
0.342165
0.339104
0.33582
0.332352
0.328716
0.324917
0.320954
0.312527
0.308105
0.303639
0.191418
0.191222
0.19307
0.198927
0.20254
0.206324
0.210093
0.213707
0.217074
0.225174
0.227158
0.230171
0.231328
0.232425
0.233655
0.254125
0.261039
0.278814
0.395021
0.379837
0.366252
0.354198
0.33428
0.326208
0.308525
0.304499
0.301249
0.298681
0.296708
0.294202
0.293513
0.292915
0.293107
0.210992
0.21213
0.213831
0.216062
0.218765
0.221852
0.22522
0.228753
0.232334
0.235856
0.239238
0.242422
0.245366
0.248043
0.250437
0.252547
0.254371
0.255903
0.258136
0.258935
0.259614
0.260223
0.260779
0.261276
0.261679
0.261915
0.261878
0.261435
0.260457
0.258866
0.256675
0.253965
0.2159
0.212581
0.209614
0.20461
0.202488
0.200608
0.199008
0.197738
0.200439
0.201838
0.204741
0.206643
0.20556
0.352559
0.355447
0.357723
0.359279
0.36002
0.358908
0.357181
0.354848
0.35207
0.349007
0.345788
0.335665
0.332116
0.328431
0.201731
0.197515
0.194186
0.191838
0.192402
0.19474
0.197683
0.201032
0.204581
0.208153
0.211617
0.225075
0.226882
0.228449
0.229859
0.28471
0.403818
0.389929
0.377588
0.312902
0.312995
0.288897
0.285798
0.282872
0.277567
0.275169
0.249553
0.25322
0.256722
0.26001
0.263042
0.265787
0.268217
0.270303
0.272034
0.273431
0.274556
0.275477
0.276242
0.276872
0.27736
0.277677
0.277756
0.277497
0.276777
0.267822
0.264267
0.260373
0.256219
0.25186
0.247338
0.242697
0.238008
0.233374
0.228917
0.224749
0.220947
0.217542
0.214519
0.211844
0.209479
0.207422
0.205697
0.203348
0.202698
0.202323
0.202157
0.202158
0.20231
0.20262
0.203109
0.203799
0.204691
0.205762
0.206954
0.208183
0.209348
0.210348
0.210836
0.210099
0.209151
0.208013
0.206715
0.2053
0.203813
0.202282
0.200714
0.199089
0.197351
0.195434
0.193272
0.190807
0.188003
0.184855
0.181401
0.177713
0.367609
0.369783
0.371274
0.372006
0.371909
0.369211
0.366799
0.360657
0.357274
0.353866
0.22587
0.219447
0.213333
0.207646
0.202542
0.198177
0.194688
0.191914
0.194035
0.196772
0.199935
0.203332
0.210182
0.213418
0.223934
0.225926
0.227718
0.229393
0.231096
0.291481
0.42932
0.415183
0.402607
0.310519
0.30685
0.303311
0.29994
0.296754
0.293748
0.290913
0.288232
0.285688
0.283261
0.280937
0.278703
0.276555
0.274492
0.293242
0.294181
0.294898
0.295389
0.295626
0.295549
0.295063
0.294053
0.29241
0.290072
0.287067
0.283489
0.279448
0.275042
0.270351
0.265432
0.260331
0.255097
0.249806
0.234785
0.230453
0.220112
0.21748
0.215225
0.213359
0.210821
0.210089
0.209625
0.209358
0.209246
0.209278
0.209467
0.209834
0.210397
0.214121
0.215054
0.215796
0.216257
0.215651
0.214901
0.211686
0.210401
0.205063
0.203688
0.200527
0.198582
0.196302
0.193643
0.190595
0.187193
0.18351
0.179648
0.175706
0.171777
0.167951
0.385356
0.386122
0.386082
0.385195
0.383468
0.380989
0.377916
0.37444
0.370751
0.367026
0.233639
0.226842
0.220306
0.214099
0.208328
0.203139
0.198681
0.195091
0.196232
0.199288
0.202611
0.206034
0.212711
0.22375
0.227989
0.22994
0.231953
0.234235
0.237014
0.286188
0.299085
0.330845
0.326797
0.322871
0.319106
0.315521
0.312114
0.308876
0.292194
0.289772
0.287444
0.285202
0.283033
0.280922
0.278853
0.276805
0.300974
0.296407
0.291441
0.286159
0.280624
0.274885
0.268998
0.263048
0.257156
0.251467
0.24612
0.241217
0.236819
0.232934
0.229546
0.226625
0.224153
0.21805
0.218689
0.219482
0.220355
0.221212
0.221948
0.222464
0.222675
0.222531
0.22204
0.221262
0.216643
0.215356
0.214097
0.212889
0.211736
0.210618
0.209477
0.208227
0.206771
0.205019
0.202893
0.200343
0.197353
0.193957
0.190229
0.186279
0.182215
0.178144
0.174164
0.402183
0.40229
0.401539
0.399917
0.382382
0.378282
0.248891
0.241492
0.234324
0.227423
0.214573
0.20877
0.199055
0.195419
0.196069
0.199092
0.202417
0.20588
0.209354
0.212746
0.221872
0.224497
0.229233
0.231472
0.233802
0.236435
0.239609
0.243551
0.248474
0.293561
0.307482
0.329065
0.325618
0.322311
0.319127
0.316054
0.313083
0.310212
0.307443
0.304776
0.302204
0.299717
0.297301
0.292609
0.290298
0.283182
0.280659
0.272637
0.269927
0.264829
0.25884
0.253341
0.248403
0.244051
0.240274
0.237044
0.234338
0.232139
0.230421
0.229138
0.22821
0.227537
0.22704
0.226681
0.22646
0.226401
0.226532
0.230436
0.230421
0.221626
0.220414
0.219316
0.218323
0.217398
0.216468
0.215427
0.208081
0.205103
0.20166
0.197833
0.193737
0.189495
0.185223
0.181034
0.419779
0.418383
0.416085
0.412944
0.409106
0.404779
0.400188
0.395543
0.391028
0.257349
0.249482
0.241885
0.227632
0.214771
0.208988
0.203788
0.199311
0.190726
0.191819
0.196269
0.199328
0.202723
0.206293
0.209909
0.213472
0.216911
0.220175
0.223239
0.22611
0.231388
0.233929
0.236586
0.239577
0.243147
0.247534
0.252961
0.301738
0.316635
0.324518
0.321629
0.318832
0.316112
0.313454
0.310842
0.308262
0.30048
0.297797
0.292276
0.289477
0.286717
0.28408
0.281653
0.279519
0.277744
0.276369
0.275422
0.274929
0.27491
0.275385
0.276377
0.277902
0.279974
0.282596
0.285762
0.240246
0.239202
0.23841
0.237784
0.23729
0.236934
0.236745
0.236757
0.236984
0.237414
0.237996
0.238638
0.239229
0.23965
0.239793
0.239571
0.22807
0.227053
0.226191
0.22543
0.216842
0.213823
0.210279
0.206292
0.192975
0.188517
0.436597
0.433681
0.420511
0.415359
0.410201
0.40522
0.257742
0.249613
0.24185
0.227491
0.214711
0.208998
0.203871
0.199461
0.191105
0.192238
0.199959
0.203481
0.21481
0.21849
0.222008
0.228485
0.231473
0.234351
0.237212
0.240212
0.243574
0.24755
0.252387
0.258318
0.274264
0.284617
0.31067
0.311563
0.308675
0.305847
0.303157
0.300692
0.298532
0.296735
0.295337
0.304329
0.308048
0.312313
0.317089
0.322325
0.248853
0.249341
0.249886
0.250366
0.250655
0.250637
0.250221
0.249369
0.24812
0.246573
0.244855
0.243084
0.23834
0.237146
0.236182
0.235418
0.234787
0.23107
0.229164
0.226668
0.223552
0.215639
0.211068
0.196638
0.437715
0.431994
0.426292
0.420791
0.266496
0.257695
0.24933
0.24143
0.234002
0.227034
0.220506
0.214418
0.20882
0.203811
0.199516
0.204619
0.208559
0.212606
0.216648
0.234786
0.241195
0.244562
0.248316
0.252717
0.258019
0.264462
0.281608
0.292658
0.320297
0.316552
0.315534
0.314954
0.314829
0.315181
0.316035
0.317417
0.319354
0.32187
0.324982
0.328698
0.343307
0.254146
0.252231
0.250488
0.248987
0.247766
0.246827
0.246132
0.245599
0.2451
0.244475
0.243557
0.242195
0.240265
0.234413
0.230486
0.225998
0.221097
0.215946
0.210706
0.205532
0.450011
0.443732
0.276059
0.266426
0.257299
0.248719
0.240704
0.233248
0.226323
0.219892
0.208489
0.203635
0.199492
0.196176
0.206053
0.21023
0.218866
0.223121
0.227238
0.231186
0.238609
0.24217
0.249516
0.253695
0.25855
0.26434
0.271312
0.279689
0.289663
0.301397
0.315007
0.33056
0.351348
0.355669
0.360615
0.366152
0.252763
0.250044
0.246568
0.232257
0.226686
0.221009
0.215397
0.276183
0.266118
0.256679
0.247899
0.232315
0.225449
0.219134
0.213332
0.208059
0.203387
0.19628
0.194039
0.203594
0.207724
0.212155
0.216743
0.22137
0.225942
0.234685
0.246796
0.259645
0.27883
0.287797
0.298403
0.310811
0.325136
0.327931
0.3213
0.276222
0.255994
0.24702
0.238808
0.231329
0.224526
0.21833
0.212689
0.207602
0.203125
0.199359
0.196407
0.194351
0.193233
0.193066
0.205221
0.20959
0.214284
0.219159
0.224095
0.228997
0.233795
0.238458
0.242989
0.251813
0.266142
0.335951
0.348246
0.341233
0.335209
0.330156
0.326014
0.27636
0.24624
0.237924
0.230424
0.223673
0.217589
0.212102
0.207197
0.202918
0.199353
0.19382
0.193846
0.202896
0.207013
0.211624
0.216582
0.237403
0.242464
0.247423
0.252314
0.257203
0.262196
0.273205
0.279698
0.331824
0.347531
0.370081
0.362726
0.356406
0.3511
0.346746
0.329568
0.329206
0.276766
0.237266
0.229726
0.223004
0.211658
0.20692
0.202828
0.199461
0.194531
0.197998
0.200925
0.204616
0.208956
0.213807
0.219027
0.224478
0.230045
0.235639
0.241196
0.246688
0.252122
0.257531
0.262982
0.268577
0.274473
0.288049
0.296226
0.343594
0.373665
0.369116
0.350604
0.35014
0.327684
0.32627
0.325317
0.304068
0.29036
0.277584
0.222621
0.216684
0.206846
0.202922
0.199739
0.197383
0.195401
0.199468
0.202595
0.206493
0.216137
0.221614
0.227353
0.233244
0.239206
0.24518
0.251144
0.257107
0.263101
0.269188
0.282085
0.306086
0.356336
0.350668
0.34872
0.347271
0.346295
0.306588
0.229371
0.222615
0.216703
0.211534
0.203275
0.200258
0.198083
0.196484
0.197106
0.198667
0.201133
0.204454
0.208551
0.213319
0.218632
0.224361
0.230388
0.236613
0.242963
0.249388
0.25587
0.262421
0.269071
0.275878
0.282929
0.290356
0.298341
0.307096
0.316851
0.327829
0.340246
0.354297
0.370139
0.373589
0.371592
0.3701
0.369081
0.309713
0.229894
0.223071
0.212023
0.20397
0.201099
0.199089
0.210842
0.215809
0.221341
0.227319
0.233636
0.240207
0.246969
0.253882
0.260933
0.268134
0.275513
0.28312
0.29103
0.299356
0.308259
0.317931
0.328582
0.353663
0.368489
0.313485
0.297874
0.224054
0.212979
0.208642
0.20508
0.202336
0.200474
0.208969
0.213431
0.230555
0.23717
0.274329
0.309144
0.319044
0.329705
0.341318
0.354077
0.368177
0.383803
0.317905
0.301677
0.286739
0.27318
0.225607
0.219583
0.214455
0.210153
0.204033
0.202305
0.211765
0.216394
0.221733
0.227686
0.234162
0.241086
0.272422
0.281103
0.309424
0.319778
0.33074
0.342451
0.355077
0.368795
0.322929
0.306104
0.290638
0.276621
0.221645
0.212205
0.206247
0.204646
0.204351
0.205661
0.207906
0.219836
0.225359
0.231527
0.238266
0.245519
0.253246
0.279097
0.298553
0.308976
0.319892
0.331347
0.34342
0.356223
0.3699
0.311077
0.295104
0.280642
0.256314
0.246367
0.224283
0.219089
0.214821
0.211458
0.209022
0.207547
0.207058
0.207556
0.211438
0.214739
0.218897
0.223867
0.243011
0.250622
0.258795
0.286609
0.30789
0.319352
0.343956
0.316494
0.300044
0.285161
0.271877
0.260166
0.249974
0.24121
0.218013
0.214718
0.212389
0.21105
0.210717
0.211384
0.219091
0.223427
0.234528
0.24119
0.248537
0.256546
0.265208
0.274525
0.295121
0.306394
0.318301
0.33083
0.343966
0.357706
0.322234
0.305347
0.290078
0.27646
0.264471
0.254056
0.245124
0.237559
0.221781
0.218573
0.215887
0.217727
0.220505
0.224177
0.228718
0.240294
0.247257
0.25497
0.263426
0.272629
0.282587
0.329912
0.343524
0.32819
0.310911
0.295298
0.281385
0.269153
0.249479
0.241831
0.226118
0.23007
0.234847
0.254289
0.262418
0.271374
0.281168
0.291815
0.334305
0.316685
0.300773
0.286608
0.274174
0.231042
0.227114
0.229433
0.232693
0.236853
0.241906
0.262386
0.290915
0.302291
0.36017
0.340609
0.322699
0.306538
0.279576
0.245516
0.240483
0.236629
0.233911
0.234011
0.24465
0.250018
0.271663
0.301956
0.314087
0.367038
0.347207
0.329062
0.312703
0.285474
0.274552
0.251511
0.246644
0.240551
0.241942
0.244902
0.2488
0.253605
0.259327
0.282243
0.291882
0.302583
0.314372
0.327266
0.292025
0.281089
0.271908
0.264373
0.258346
0.253696
0.250328
0.248183
0.251059
0.254403
0.25868
0.263865
0.269976
0.304432
0.315751
0.328226
0.341872
0.279389
0.271997
0.261787
0.258735
0.25695
0.256384
0.25699
0.261492
0.265261
0.269955
0.275552
0.282081
0.318488
0.330415
0.343557
0.351847
0.335202
0.287916
0.280704
0.275124
0.27104
0.268345
0.266963
0.266833
0.267897
0.273338
0.277569
0.282715
0.288754
0.295724
0.334094
0.346606
0.360381
0.361224
0.344571
0.297606
0.285296
0.2783
0.280201
0.282899
0.286654
0.291382
0.297009
0.310947
0.31937
0.351259
0.364324
0.378685
0.308531
0.296749
0.29336
0.291476
0.290999
0.291844
0.293929
0.297165
0.306712
0.312848
0.319846
0.327752
0.336642
0.369964
0.383539
0.398434
0.320717
0.314199
0.309503
0.306496
0.305054
0.305068
0.306442
0.30908
0.312882
0.317739
0.323545
0.330213
0.33772
0.346113
0.355472
0.365877
0.377412
0.390162
0.404201
0.41957
0.325629
0.330018
0.335462
0.341842
0.34906
0.35709
0.365976
0.375802
0.386652
0.411785
0.426236
0.343515
0.348514
0.369318
0.37788
0.387263
0.397551
0.408831
0.421196
0.434744
0.449555
0.420617
0.432309
0.445049
0.462558
0.456616
0.453022
0.491259
0.483395
0.477894
0.47476
0.512652
0.505249
0.500207
0.497537
0.535007
0.528096
0.523527
0.521322
0.558278
0.551889
0.547809
0.350078
0.3697
0.321408
0.339626
0.358804
0.378811
0.399503
0.420742
0.442422
0.464485
0.253403
0.313121
0.330893
0.349619
0.36917
0.389408
0.410206
0.431469
0.453151
0.458097
0.465895
0.47537
0.24833
0.423093
0.427335
0.433391
0.441198
0.450697
0.46183
0.474556
0.488855
0.402467
0.398994
0.397469
0.397882
0.400206
0.404404
0.410417
0.418189
0.42766
0.438772
0.451474
0.465734
0.386673
0.381388
0.376883
0.379147
0.383265
0.38919
0.393581
0.383086
0.37432
0.367348
0.357727
0.359898
0.363892
0.369677
0.239308
0.375385
0.342409
0.346236
0.351827
0.359148
0.368148
0.37876
0.238501
0.358988
0.351303
0.361588
0.237745
0.247885
0.344338
0.334711
0.326685
0.3358
0.236825
0.246469
0.257169
0.322006
0.314197
0.31363
0.321531
0.235559
0.24471
0.254881
0.266054
0.310857
0.303233
0.300975
0.233795
0.242475
0.252136
0.262765
0.412325
0.393551
0.30115
0.283988
0.289402
0.231426
0.23967
0.248857
0.258977
0.40204
0.383526
0.292763
0.270462
0.273908
0.236278
0.24504
0.285564
0.261779
0.224842
0.232364
0.240755
0.287934
0.279421
0.253968
0.362444
0.377864
0.394022
0.410862
0.42834
0.446413
0.465036
0.220828
0.228069
0.236146
0.282641
0.246256
0.246977
0.320366
0.33334
0.347163
0.410026