# vtk DataFile Version 1.0
Unstructured Grid Example
ASCII

DATASET UNSTRUCTURED_GRID
POINTS 2096 float
1 513 0
6 513 0
10 513 0
14 513 0
28 513 0
34 513 0
39 513 0
44 513 0
49 513 0
56 513 0
60 513 0
64 513 0
68 513 0
72 513 0
79 513 0
86 513 0
91 513 0
96 513 0
102 513 0
116 513 0
131 513 0
149 513 0
165 513 0
188 513 0
208 513 0
231 513 0
258 513 0
286 513 0
301 513 0
315 513 0
324 513 0
334 513 0
342 513 0
348 513 0
352 513 0
364 513 0
374 513 0
378 513 0
388 513 0
395 513 0
404 513 0
408 513 0
417 513 0
421 513 0
427 513 0
436 513 0
443 513 0
449 513 0
454 513 0
460 513 0
473 513 0
480 513 0
494 513 0
506 513 0
19 512 0
357 512 0
400 512 0
413 512 0
431 512 0
464 512 0
485 512 0
499 512 0
369 511 0
381 511 0
440 511 0
470 511 0
491 511 0
512 511 0
385 510 0
392 510 0
425 510 0
434 510 0
446 510 0
451 510 0
482 510 0
0 509 0
25 509 0
30 509 0
35 509 0
66 509 0
71 509 0
77 509 0
83 509 0
408 509 0
505 509 0
60 508 0
90 508 0
399 508 0
404 508 0
468 508 0
488 508 0
12 507 0
56 507 0
357 507 0
362 507 0
412 507 0
416 507 0
420 507 0
439 507 0
462 507 0
484 507 0
495 507 0
74 506 0
86 506 0
350 506 0
424 506 0
428 506 0
512 506 0
18 505 0
28 505 0
67 505 0
370 505 0
384 505 0
389 505 0
432 505 0
465 505 0
474 505 0
492 505 0
500 505 0
506 505 0
23 504 0
62 504 0
446 504 0
452 504 0
469 504 0
478 504 0
0 503 0
55 503 0
456 503 0
486 503 0
503 503 0
71 502 0
78 502 0
393 502 0
399 502 0
461 502 0
496 502 0
511 502 0
52 501 0
64 501 0
85 501 0
406 501 0
474 501 0
48 500 0
60 500 0
411 500 0
425 500 0
482 500 0
491 500 0
21 499 0
75 499 0
418 499 0
502 499 0
506 499 0
56 498 0
81 498 0
510 498 0
44 497 0
65 497 0
69 497 0
48 496 0
52 496 0
468 496 0
0 495 0
73 495 0
77 495 0
55 494 0
61 494 0
478 494 0
494 494 0
44 493 0
65 493 0
69 493 0
52 492 0
512 491 0
56 490 0
62 490 0
81 490 0
66 489 0
76 489 0
51 488 0
71 488 0
43 487 0
60 487 0
54 486 0
512 486 0
68 485 0
0 484 0
47 484 0
58 483 0
51 482 0
62 482 0
43 481 0
67 480 0
55 479 0
512 479 0
60 477 0
52 476 0
68 475 0
56 474 0
63 473 0
0 472 0
512 466 0
48 465 0
0 461 0
0 456 0
4 453 0
9 452 0
191 452 0
0 451 0
512 451 0
185 450 0
0 447 0
181 444 0
191 444 0
1 443 0
172 441 0
188 439 0
202 439 0
269 438 0
178 437 0
195 437 0
1 436 0
210 436 0
13 435 0
274 435 0
192 434 0
199 434 0
177 433 0
186 433 0
236 433 0
205 432 0
250 432 0
268 432 0
10 431 0
195 431 0
0 430 0
4 430 0
273 430 0
512 430 0
16 429 0
245 429 0
175 428 0
190 428 0
254 428 0
211 427 0
269 427 0
186 426 0
195 426 0
206 426 0
249 426 0
275 426 0
201 425 0
259 425 0
1 424 0
176 424 0
190 424 0
242 424 0
184 422 0
273 422 0
16 421 0
193 421 0
206 421 0
250 421 0
160 420 0
260 420 0
177 419 0
245 419 0
255 419 0
267 419 0
196 418 0
201 418 0
0 417 0
183 417 0
172 416 0
9 414 0
159 414 0
165 414 0
178 414 0
272 414 0
4 413 0
183 413 0
173 412 0
0 411 0
153 411 0
216 411 0
267 411 0
177 410 0
512 410 0
161 409 0
271 409 0
181 408 0
206 408 0
211 408 0
221 408 0
226 407 0
287 407 0
215 405 0
0 404 0
203 404 0
208 404 0
219 404 0
269 404 0
182 403 0
224 403 0
156 401 0
231 401 0
265 401 0
207 400 0
0 398 0
184 398 0
228 397 0
268 397 0
202 396 0
208 396 0
234 396 0
290 396 0
224 394 0
263 394 0
161 393 0
230 393 0
186 391 0
205 391 0
0 390 0
201 390 0
226 390 0
286 390 0
222 389 0
230 389 0
266 389 0
208 388 0
186 386 0
226 386 0
260 386 0
281 386 0
512 386 0
222 385 0
166 384 0
206 384 0
230 384 0
266 384 0
286 384 0
0 383 0
200 383 0
186 381 0
208 381 0
216 381 0
223 381 0
228 380 0
267 380 0
213 379 0
257 379 0
167 378 0
173 378 0
199 378 0
218 378 0
0 377 0
223 377 0
210 376 0
263 376 0
220 375 0
228 375 0
253 375 0
185 374 0
207 374 0
270 374 0
217 373 0
224 373 0
213 372 0
258 372 0
168 371 0
200 371 0
221 371 0
229 371 0
0 370 0
207 370 0
266 370 0
186 369 0
252 369 0
262 369 0
225 368 0
258 368 0
512 368 0
174 367 0
199 367 0
0 365 0
5 365 0
190 365 0
230 365 0
264 365 0
251 364 0
9 363 0
49 363 0
172 363 0
197 363 0
255 363 0
15 362 0
186 362 0
193 362 0
1 361 0
22 361 0
27 361 0
58 361 0
215 361 0
53 360 0
220 360 0
261 360 0
32 359 0
44 359 0
67 359 0
171 359 0
233 359 0
249 359 0
3 358 0
9 358 0
37 358 0
189 358 0
211 358 0
227 358 0
272 358 0
14 357 0
18 357 0
167 357 0
184 357 0
217 357 0
29 356 0
41 356 0
51 356 0
60 356 0
73 356 0
221 356 0
246 356 0
254 356 0
0 355 0
25 355 0
8 354 0
36 354 0
89 354 0
234 354 0
250 354 0
12 353 0
46 353 0
80 353 0
103 353 0
170 353 0
190 353 0
40 352 0
54 352 0
244 352 0
512 352 0
50 351 0
58 351 0
67 351 0
96 351 0
185 351 0
232 351 0
240 351 0
0 350 0
9 350 0
21 350 0
71 350 0
115 350 0
174 350 0
250 350 0
4 349 0
13 349 0
63 349 0
75 349 0
165 349 0
228 349 0
81 348 0
86 348 0
104 348 0
125 348 0
244 348 0
18 347 0
26 347 0
30 347 0
36 347 0
51 347 0
68 347 0
93 347 0
99 347 0
109 347 0
119 347 0
137 347 0
184 347 0
189 347 0
8 346 0
22 346 0
72 346 0
113 346 0
168 346 0
219 346 0
223 346 0
239 346 0
270 346 0
12 345 0
142 345 0
2 344 0
89 344 0
102 344 0
148 344 0
193 344 0
261 344 0
18 343 0
25 343 0
31 343 0
84 343 0
96 343 0
108 343 0
183 343 0
9 342 0
78 342 0
122 342 0
168 342 0
219 342 0
237 342 0
512 342 0
0 341 0
5 341 0
115 341 0
129 341 0
246 341 0
272 341 0
38 340 0
67 340 0
187 340 0
198 340 0
263 340 0
13 339 0
63 339 0
74 339 0
175 339 0
216 339 0
21 338 0
26 338 0
51 338 0
58 338 0
118 338 0
126 338 0
241 338 0
267 338 0
0 337 0
32 337 0
42 337 0
122 337 0
133 337 0
171 337 0
184 337 0
191 337 0
212 337 0
237 337 0
253 337 0
260 337 0
46 336 0
68 336 0
72 336 0
76 336 0
89 336 0
96 336 0
102 336 0
112 336 0
196 336 0
244 336 0
273 336 0
512 336 0
83 335 0
179 335 0
229 335 0
99 334 0
139 334 0
162 334 0
215 334 0
222 334 0
233 334 0
247 334 0
257 334 0
93 333 0
104 333 0
108 333 0
124 333 0
143 333 0
174 333 0
182 333 0
240 333 0
499 333 0
78 332 0
88 332 0
114 332 0
119 332 0
130 332 0
150 332 0
225 332 0
244 332 0
264 332 0
83 331 0
101 331 0
193 331 0
207 331 0
220 331 0
230 331 0
254 331 0
272 331 0
0 330 0
74 330 0
97 330 0
106 330 0
110 330 0
134 330 0
138 330 0
146 330 0
154 330 0
164 330 0
235 330 0
125 329 0
178 329 0
183 329 0
248 329 0
512 329 0
69 328 0
103 328 0
114 328 0
130 328 0
209 328 0
224 328 0
65 327 0
121 327 0
203 327 0
216 327 0
232 327 0
237 327 0
244 327 0
261 327 0
136 326 0
253 326 0
97 325 0
110 325 0
141 325 0
58 324 0
91 324 0
128 324 0
182 324 0
205 324 0
213 324 0
227 324 0
247 324 0
53 323 0
64 323 0
103 323 0
107 323 0
114 323 0
118 323 0
122 323 0
133 323 0
238 323 0
512 323 0
176 322 0
209 322 0
222 322 0
230 322 0
0 321 0
200 321 0
235 321 0
68 320 0
204 320 0
213 320 0
244 320 0
36 319 0
219 319 0
105 318 0
114 318 0
178 318 0
226 318 0
230 318 0
174 317 0
201 317 0
222 317 0
110 316 0
118 316 0
170 316 0
234 316 0
0 315 0
71 315 0
206 315 0
217 315 0
183 314 0
512 314 0
209 313 0
214 313 0
229 313 0
6 312 0
177 312 0
223 312 0
77 311 0
201 311 0
1 310 0
123 310 0
129 310 0
137 310 0
212 310 0
64 309 0
117 309 0
207 309 0
219 309 0
229 309 0
233 309 0
178 308 0
171 307 0
204 307 0
215 307 0
223 307 0
175 306 0
0 305 0
180 305 0
229 305 0
512 305 0
191 304 0
206 304 0
177 303 0
202 303 0
212 303 0
221 303 0
390 303 0
170 302 0
225 302 0
181 301 0
198 301 0
215 301 0
186 300 0
208 300 0
229 300 0
336 300 0
396 300 0
0 299 0
203 299 0
222 299 0
331 299 0
213 298 0
318 298 0
512 298 0
168 297 0
173 297 0
199 297 0
219 297 0
344 297 0
370 297 0
225 296 0
375 296 0
392 296 0
191 295 0
202 295 0
207 295 0
211 295 0
340 295 0
349 295 0
187 294 0
215 294 0
234 294 0
169 293 0
183 293 0
194 293 0
223 293 0
229 293 0
323 293 0
0 292 0
200 292 0
330 292 0
445 292 0
450 292 0
512 292 0
177 291 0
189 291 0
207 291 0
213 291 0
218 291 0
337 291 0
356 291 0
203 290 0
343 290 0
171 289 0
182 289 0
186 289 0
192 289 0
222 289 0
233 289 0
362 289 0
368 289 0
391 289 0
397 289 0
167 288 0
351 288 0
374 288 0
385 288 0
476 288 0
176 287 0
200 287 0
225 287 0
332 287 0
378 287 0
482 287 0
512 287 0
190 286 0
211 286 0
357 286 0
394 286 0
492 286 0
173 285 0
181 285 0
185 285 0
206 285 0
463 285 0
470 285 0
498 285 0
193 284 0
197 284 0
221 284 0
338 284 0
382 284 0
389 284 0
398 284 0
178 283 0
188 283 0
228 283 0
375 283 0
410 283 0
164 282 0
170 282 0
478 282 0
503 282 0
174 281 0
184 281 0
195 281 0
202 281 0
208 281 0
395 281 0
403 281 0
465 281 0
486 281 0
510 281 0
180 280 0
219 280 0
223 280 0
344 280 0
399 280 0
469 280 0
187 279 0
191 279 0
205 279 0
420 279 0
473 279 0
213 278 0
410 278 0
425 278 0
442 278 0
447 278 0
451 278 0
496 278 0
176 277 0
197 277 0
436 277 0
489 277 0
501 277 0
511 277 0
457 276 0
506 276 0
165 275 0
188 275 0
206 275 0
374 275 0
401 275 0
416 275 0
464 275 0
468 275 0
474 275 0
478 275 0
483 275 0
170 274 0
174 274 0
178 274 0
184 274 0
199 274 0
210 274 0
217 274 0
226 274 0
379 274 0
408 274 0
422 274 0
441 274 0
460 274 0
0 273 0
193 273 0
231 273 0
353 273 0
431 273 0
445 273 0
451 273 0
503 273 0
511 273 0
203 272 0
221 272 0
456 272 0
507 272 0
188 271 0
437 271 0
172 270 0
177 270 0
182 270 0
196 270 0
206 270 0
461 270 0
465 270 0
213 269 0
227 269 0
164 268 0
186 268 0
203 268 0
472 268 0
512 268 0
191 267 0
220 267 0
443 267 0
487 267 0
175 266 0
467 266 0
492 266 0
183 265 0
200 265 0
210 265 0
226 265 0
234 265 0
448 265 0
461 265 0
475 265 0
480 265 0
166 264 0
179 264 0
189 264 0
193 264 0
244 264 0
484 264 0
512 264 0
197 263 0
204 263 0
215 263 0
238 263 0
471 263 0
478 262 0
175 261 0
184 261 0
191 261 0
207 261 0
211 261 0
221 261 0
451 261 0
231 260 0
474 260 0
485 260 0
489 260 0
498 260 0
512 260 0
179 259 0
493 259 0
216 258 0
237 258 0
503 258 0
507 258 0
189 257 0
195 257 0
207 257 0
227 257 0
482 257 0
185 256 0
211 256 0
223 256 0
511 256 0
450 255 0
474 255 0
174 254 0
193 254 0
205 254 0
444 254 0
189 253 0
407 253 0
457 253 0
468 253 0
478 253 0
217 252 0
463 252 0
483 252 0
490 252 0
498 252 0
503 252 0
508 252 0
0 251 0
199 251 0
221 251 0
183 250 0
204 250 0
512 250 0
209 249 0
116 248 0
215 248 0
186 247 0
199 247 0
207 246 0
512 246 0
211 245 0
186 243 0
194 243 0
198 243 0
204 243 0
175 242 0
214 242 0
191 241 0
201 241 0
196 240 0
207 240 0
[...]
CELL_DATA 2096
COLOR_SCALARS lut 1
0.075139
0.0871926
0.0983967
0.112469
0.126364
0.107612
0.0968154
0.0907823
0.082895
0.0752691
0.0794846
0.0899178
0.100715
0.106774
0.106626
0.107795
0.118125
0.146943
0.208319
0.407687
0.613886
0.678872
0.625753
0.58529
0.608386
0.698277
0.711635
0.714998
0.672164
0.491066
0.359563
0.228662
0.144905
0.105189
0.0906482
0.080938
0.0832325
0.0836031
0.0883963
0.0923747
0.0919804
0.088046
0.0742198
0.0743488
0.0817904
0.0822904
0.0800563
0.0822775
0.0799021
0.0743387
0.0687832
0.0733771
0.0873735
0.0678853
0.130547
0.0866633
0.092967
0.0799005
0.0856278
0.0736004
0.0816469
0.0803649
0.0904341
0.0905796
0.085322
0.0721277
0.0864514
0.0582025
0.0936439
0.0938988
0.0823773
0.0893898
0.0895725
0.0894091
0.0783455
0.0886346
0.135178
0.125939
0.11472
0.0905196
0.0978932
0.100097
0.10414
0.0897253
0.0709885
0.0795587
0.129464
0.0965872
0.0944945
0.0784461
0.0847968
0.130973
0.0798221
0.117869
0.113957
0.0885628
0.0846898
0.0841564
0.101372
0.0862192
0.0833264
0.0833905
0.095365
0.115519
0.146752
0.090639
0.0962611
0.0639047
0.149164
0.139074
0.0876776
0.129681
0.119696
0.114009
0.106366
0.0888802
0.083758
0.0866561
0.0817669
0.0751585
0.149428
0.080393
0.122452
0.117456
0.0883994
0.0869387
0.121629
0.0823181
0.116269
0.0922593
0.0840632
0.0919266
0.0992752
0.130948
0.12418
0.109725
0.0908674
0.0750064
0.0889843
0.0825862
0.125017
0.124496
0.0985192
0.100204
0.0791792
0.126719
0.12609
0.103533
0.100715
0.181355
0.0999325
0.130492
0.100347
0.0954956
0.0812801
0.115881
0.0915689
0.114429
0.0860647
0.093613
0.0989435
0.0881219
0.135075
0.17493
0.104539
0.113195
0.082641
0.0820351
0.145263
0.135767
0.115009
0.0895505
0.0991083
0.0876431
0.129099
0.0830608
0.0865805
0.152544
0.0970185
0.132491
0.0918323
0.115636
0.128886
0.0876034
0.0889625
0.171655
0.112956
0.245018
0.111516
0.0940983
0.101723
0.103588
0.143856
0.130823
0.106226
0.23742
0.123057
0.121545
0.173837
0.134915
0.164714
0.24282
0.378386
0.209336
0.154534
0.120297
0.133167
0.169958
0.196956
0.102889
0.561116
0.16468
0.0991507
0.130179
0.133218
0.101389
0.166574
0.105225
0.163252
0.178764
0.119212
0.114585
0.0908184
0.200238
0.141911
0.165565
0.0971046
0.118363
0.117797
0.0936839
0.201288
0.140698
0.183792
0.136385
0.12045
0.0969926
0.0826529
0.0951408
0.135722
0.831329
0.159717
0.170801
0.118568
0.0888447
0.161427
0.165759
0.119553
0.0900728
0.0939356
0.131024
0.166477
0.138008
0.108552
0.140542
0.0907492
0.106794
0.0912872
0.171393
0.0928701
0.125669
0.186837
0.100247
0.131289
0.173988
0.154283
0.138253
0.0992076
0.185823
0.163752
0.117499
0.11354
0.119822
0.0955453
0.0996447
0.108026
0.16377
0.138353
0.121326
0.104132
0.130478
0.13059
0.110608
0.11332
0.115034
0.1728
0.149782
0.135894
0.118034
1
0.134696
0.142001
0.127488
0.123593
0.125817
0.141646
0.139899
0.20744
0.121349
0.166265
0.120034
0.113455
0.121275
0.156965
0.151251
0.118779
0.191117
0.124773
0.168289
0.107428
0.220655
0.166029
0.108268
0.158121
0.110537
0.104068
0.131708
0.199888
0.102603
0.156675
0.220916
0.111139
0.16221
0.0994907
0.266468
0.1059
0.100802
0.180433
0.0989543
0.110878
0.132076
0.0956513
0.153991
0.0978905
0.131048
0.172035
0.743364
0.0928769
0.215327
0.0901429
0.110429
0.118685
0.194512
0.245253
0.101195
0.142917
0.0862347
0.0865495
0.0883378
0.100521
0.114771
0.0842388
0.118956
0.194907
0.165952
0.100924
0.083385
0.194106
0.086129
0.0846837
0.105071
0.083357
0.0995206
0.12809
0.124955
0.0887507
0.12838
0.0843849
0.0880443
0.0874652
0.107324
0.160781
0.0984819
0.0861882
0.10259
0.131485
0.0960036
0.114297
0.108601
0.125938
0.10625
0.0915651
0.107197
0.496137
0.124736
0.101662
0.0991791
0.120891
0.0979178
0.100682
0.113648
0.121947
0.126074
0.150211
0.121185
0.103867
0.110381
0.137762
0.0975113
0.0983691
0.0852594
0.132278
0.13173
0.148833
0.106929
0.131825
0.0974592
0.112003
0.118145
0.117151
0.150173
0.115449
0.0972872
0.115511
0.0816048
0.0979523
0.111694
0.0954375
0.123816
0.0903488
0.16146
0.104004
0.106687
0.126456
0.0968773
0.108145
0.100894
0.103806
0.108305
0.11616
0.154578
0.0985585
0.109073
0.10829
0.0709322
0.0962351
0.0852928
0.0963539
0.211518
0.0907171
0.105526
0.0904583
0.0998633
0.174079
0.149363
0.10759
0.0992414
0.0949872
0.101097
0.0974345
0.301721
0.0994876
0.101044
0.106198
0.160167
0.0970726
0.0876522
0.0915823
0.0725394
0.0862458
0.0886043
0.111857
0.132189
0.101346
0.100072
0.0799113
0.0911806
0.0994676
0.120705
0.120366
0.0896239
0.137161
0.148878
0.110798
0.140292
0.08998
0.0929201
0.0857001
0.085142
0.0884022
0.100548
0.0984015
0.136095
0.118386
0.101737
0.11841
0.153228
0.0985996
0.101212
0.0924774
0.0900948
0.100722
0.100065
0.107228
0.101152
0.0942623
0.0842544
0.140505
0.0995286
0.149096
0.0864101
0.119783
0.0952439
0.153455
0.108131
0.106798
0.102708
0.0924032
0.0888833
0.112212
0.10432
0.0849043
0.0976821
0.107163
0.0987584
0.0978079
0.106377
0.0943557
0.0807277
0.207596
0.0885953
0.101949
0.0828105
0.106227
0.0847594
0.144477
0.0972485
0.0915292
0.0968882
0.115836
0.105902
0.125742
0.0969669
0.088971
0.0962479
0.0931921
0.120074
0.110725
0.108203
0.105061
0.0804582
0.0940463
0.0791101
0.117757
0.101031
0.109515
0.107872
0.0857436
0.103482
0.0997374
0.0923575
0.097946
0.097786
0.0770434
0.094332
0.103051
0.112107
0.0912882
0.0885744
0.0898182
0.0933953
0.084949
0.076698
0.0723449
0.104018
0.0827946
0.155256
0.177275
0.0957532
0.091561
0.0765975
0.0795206
0.111153
0.124826
0.0826676
0.0759565
0.0750328
0.0898653
0.106649
0.0892369
0.0736398
0.0710811
0.0862523
0.116888
0.0962161
0.0902078
0.0791715
0.2573
0.0980197
0.0976858
0.0714229
0.0770544
0.0969348
0.130534
0.0727954
0.0873348
0.129067
0.104187
0.0780392
0.0968061
0.09209
0.0723995
0.0726207
0.113991
0.169309
0.130581
0.0992141
0.0864079
0.0731426
0.0709893
0.106799
0.113573
0.124808
0.139749
0.124404
0.0749893
0.0891295
0.0925258
0.0914948
0.105951
0.175058
0.102511
0.0792203
0.0726993
0.101312
0.081943
0.069751
0.109409
0.0828477
0.0892852
0.0713436
0.0738347
0.0802675
0.0990437
0.161113
0.120125
0.141574
0.102201
0.0771934
0.132246
0.134609
0.12454
0.106342
0.093145
0.0816562
0.0718903
0.0721059
0.124623
0.152858
0.120596
0.0942044
0.0860505
0.0811203
0.0848875
0.0934282
0.123787
0.091636
0.198929
0.0964519
0.0741484
0.0709835
0.0777355
0.136394
0.0860412
0.0894522
0.124573
0.0783883
0.0706027
0.13148
0.216148
0.0724231
0.115757
0.0994019
0.0917755
0.0795939
0.0862583
0.0985729
0.0811547
0.076847
0.115434
0.111339
0.114311
0.103018
0.12586
0.145609
0.0732707
0.0745642
0.0913542
0.250267
0.071251
0.0727015
0.0940121
0.17203
0.0895126
0.0830957
0.181344
0.0791888
0.138275
0.156178
0.173186
0.194655
0.0712846
0.190948
0.156442
0.0718984
0.0775653
0.0965429
0.113749
0.086428
0.105223
0.0748651
0.072027
0.0814095
0.0903364
0.157177
0.0837461
0.0951373
0.253002
0.0874694
0.0730379
0.0857425
0.077498
0.0692323
0.0752536
0.17243
0.110515
0.0813551
0.0822926
0.0811362
0.0690118
0.0830797
0.0713739
0.0931987
0.155794
0.16446
0.208013
0.0767721
0.0745853
0.15886
0.0682532
0.254884
0.205702
0.122254
0.0961103
0.0798112
0.070575
0.138078
0.146184
0.0799538
0.137672
0.134309
0.0829448
0.0771731
0.0719286
0.0686895
0.125301
0.133789
0.0838122
0.0681168
0.123641
0.111301
0.0845544
0.081805
0.0763574
0.0938502
0.206996
0.290535
0.0778259
0.155217
0.165203
0.165035
0.156141
0.0876144
0.0847313
0.0708468
0.0681405
0.070222
0.126038
0.126844
0.0741873
0.117593
0.098517
0.0876157
0.0871751
0.0834516
0.0760641
0.119547
0.128241
0.121944
0.113549
0.12203
0.115862
0.122133
0.114277
0.115417
0.169736
0.0890615
0.0757746
0.0838401
0.167926
0.113234
0.180139
0.124834
0.0860292
0.069625
0.131765
0.110053
0.201426
0.0913773
0.0887895
0.0890469
0.0708658
0.136727
0.139527
0.183821
0.0831108
0.0784196
0.0773308
0.153515
0.115065
0.111223
0.112795
0.0870398
0.0874751
0.0970125
0.1186
0.140792
0.130344
0.0964376
0.129355
0.147384
0.0868661
0.0866393
0.0804701
0.0735181
0.0727568
0.111298
0.11949
0.112394
0.14864
0.11566
0.0843013
0.0781986
0.0833092
0.161273
0.113587
0.109338
0.0846594
0.0832833
0.0736505
0.135553
0.107672
0.0787799
0.130655
0.130484
0.104579
0.0977284
0.0966087
0.142592
0.081667
0.0772039
0.113832
0.13174
0.13348
0.10587
0.0918218
0.118656
0.12194
0.0808209
0.07822
0.152604
0.129951
0.139138
0.0903318
0.0919403
0.0962769
0.101572
0.110971
0.0946983
0.0832867
0.0791378
0.0794773
0.0757552
0.084648
0.0873993
0.092466
0.15321
0.140939
0.136087
0.0994954
0.088176
0.558243
0.0786349
0.108094
0.206149
0.122081
0.0922377
0.0879026
0.118449
0.0971803
0.0782921
0.0903825
0.0871173
0.106533
0.0795822
0.112573
0.0912893
0.0808412
0.0790285
0.0771399
0.0852069
0.0867653
0.0864223
0.0987135
0.0958952
0.142058
0.0806484
0.0817357
0.0870012
0.0841186
0.0803107
0.0992323
0.107167
0.0976736
0.0887705
0.0898631
0.103244
0.0825354
0.0796181
0.0991572
0.0973474
0.110691
0.101398
0.0945864
0.088304
0.0896791
0.138714
0.0850937
0.0828486
0.0805897
0.151105
0.0924791
0.0782002
0.0793338
0.0855665
0.105464
0.124524
0.092658
0.0916027
0.0982955
0.0857233
0.0833493
0.0916382
0.100234
0.102932
0.108894
0.111847
0.0978403
0.0987519
0.102978
0.107063
0.0747414
0.0920982
0.109402
0.103577
0.137755
0.101629
0.0898212
0.0860776
0.0819383
0.0889117
0.114593
0.108013
0.0888054
0.0953713
0.110567
0.0793797
0.138208
0.121368
0.120542
0.0834837
0.0840055
0.164679
0.0865255
0.293494
0.148489
0.144371
0.134059
0.107061
0.157914
0.143571
0.148442
0.13955
0.120857
0.0991217
0.614543
0.0803598
0.12124
0.0955363
0.0824777
0.0896729
0.0913449
0.328802
0.110212
0.0910169
0.0809733
0.0903476
0.103924
0.103973
0.0919302
0.0846888
0.0826719
0.0871202
0.124649
0.12553
0.087867
0.0846334
0.0853591
0.098154
0.0993942
0.0915297
0.117163
0.119638
0.466491
0.0887308
0.085636
0.247895
0.087465
0.149816
0.0882028
0.114174
0.0966761
0.0904469
0.118939
0.0852028
0.145561
0.0846837
0.0848793
0.0960703
0.245939
0.0951615
0.0890419
0.108436
0.34436
0.109651
0.166541
0.0862986
0.228875
0.248251
0.244447
0.116371
0.105472
0.0976054
0.168948
0.217749
0.0823555
0.144845
0.114911
0.281215
0.101931
0.0919763
0.0804391
0.0877122
0.140718
0.0825411
0.101707
0.142249
0.335676
0.104995
0.237519
0.0837169
0.0863551
0.122251
0.159974
0.0790373
0.106041
0.126932
0.077435
0.405601
0.0984112
0.088913
0.109182
0.0798245
0.0937842
0.0753443
0.164004
0.0845418
0.0743347
0.0913014
0.119727
0.100447
0.0968051
0.0778835
0.072644
0.0756574
0.123059
0.0912842
0.0993147
0.0762993
0.303338
0.176535
0.0724287
0.0825541
0.0909908
0.135852
0.0714749
0.0729674
0.297508
0.10806
0.0852024
0.0956189
0.169055
0.079644
0.0687093
0.0751934
0.083661
0.0736406
0.0854976
0.123495
0.0679124
0.0996385
0.0794641
0.124522
0.148821
0.0863448
0.0677044
0.0969123
0.131881
0.0684324
0.0763057
0.0976485
0.307604
0.11431
0.0800408
0.0667621
0.125855
0.349961
0.0994125
0.0780505
0.0877727
0.207646
0.0686178
0.0697806
0.0893817
0.0938038
0.0781315
0.0675854
0.0998241
0.248553
0.145922
0.0826067
0.0891264
0.193017
0.073028
0.0737
0.0858213
0.108954
0.0700675
0.0704988
0.0788846
0.142172
0.390854
0.0891231
0.0707661
0.0724765
0.0833392
0.0855176
0.0857076
0.0780988
0.10274
0.311313
0.101832
0.0750606
0.0757202
0.0788738
0.0840567
0.161986
0.0897042
0.0833559
0.0781879
0.0816153
0.0852816
0.0864033
0.226839
0.100026
0.122844
0.0825143
0.101433
0.0874867
0.0834224
0.0869072
0.0813275
0.080841
0.0828922
0.164722
0.291339
0.0956392
0.08891
0.0830409
0.10404
0.0944581
0.080048
0.126887
0.0792744
0.0964656
0.2798
0.0798292
0.387669
0.0954132
0.0835455
0.149633
0.134916
0.142319
0.11187
0.0761275
0.107988
0.0779426
0.100182
0.154666
0.147852
0.123911
0.0787875
0.293021
0.100624
0.0880564
0.0757943
0.0752615
0.0805909
0.253082
0.119109
0.113351
0.259003
0.137688
0.080457
0.0759567
0.0840996
0.104788
0.111993
0.0746811
0.0773826
0.109995
0.0777995
0.238064
0.0928282
0.0870235
0.19711
0.130039
0.0752687
0.0792553
0.121531
0.0975979
0.248161
0.0770425
0.323272
0.180315
0.33005
0.14754
0.0945727
0.0867086
0.078472
0.077246
0.0902978
0.0885955
0.0820262
0.0999528
0.0925916
0.175846
0.150725
0.130418
0.132425
0.10686
0.0916862
0.0824288
0.108237
0.0851947
0.130075
0.145529
0.139281
0.0865046
0.119767
0.104304
0.150995
0.0937091
0.128698
0.0940552
0.0868572
0.108803
0.121977
0.111662
0.108154
0.0848377
0.0880419
0.0922098
0.107371
0.120391
0.0886458
0.110339
0.0946317
0.10435
0.109327
0.0888716
0.135086
0.107045
0.0882558
0.108679
0.150975
0.377377
0.0878127
0.121876
0.0976709
0.0931544
0.0988402
0.0882919
0.0957987
0.0888398
0.0810965
0.091232
0.0934265
0.0892275
0.0881277
0.143262
0.138586
0.140307
0.0956537
0.120315
0.131931
0.0998864
0.0971609
0.107449
0.215395
0.120439
0.0884967
0.105642
0.0936711
0.0984893
0.0878331
0.0749564
0.150904
0.113346
0.0994948
0.138056
0.0939113
0.0854921
0.146103
0.145721
0.113498
0.101293
0.103704
0.0979403
0.0986449
0.0882104
0.0774808
0.0871038
0.114737
0.135954
0.11124
0.0875305
0.104189
0.350158
0.0883534
0.0861622
0.090681
0.107887
0.101439
0.169622
0.138464
0.109173
0.0861539
0.163382
0.106524
0.118787
0.148485
0.170636
0.175741
0.0934468
0.130838
0.142707
0.126624
0.0847934
0.10504
0.136095
0.168921
0.0851255
0.130737
0.124516
0.127068
0.124993
0.0900166
0.0862066
0.100824
0.338963
0.097958
0.0931277
0.107435
0.133077
0.0953273
0.135637
0.154929
0.335952
0.219464
0.0839644
0.10566
0.0885088
0.0981513
0.123843
0.106657
0.125719
0.0852079
0.0812159
0.0812537
0.105239
0.0870312
0.102421
0.120199
0.0944712
0.0806777
0.0821876
0.100927
0.15504
0.123435
0.0950398
0.134718
0.181252
0.0941412
0.0896663
0.104277
0.0927354
0.141963
0.0871293
0.251707
0.0797148
0.0812435
0.106211
0.113442
0.0844558
0.110325
0.113225
0.0928811
0.100994
0.315279
0.120016
0.0922889
0.0849419
0.0907743
0.0999661
0.142781
0.0852683
0.0846747
0.0934973
0.0953278
0.3189
0.0903007
0.118336
0.0900972
0.0886831
0.128436
0.0770426
0.0829898
0.0868815
0.0946196
0.100885
0.0928377
0.145169
0.0781265
0.103621
0.09888
0.0841262
0.0948124
0.226078
0.208798
0.0936154
0.088406
0.111075
0.0850492
0.273143
0.0814259
0.101755
0.173042
0.0766803
0.0801123
0.115058
0.0936409
0.0809637
0.0877328
0.0911154
0.0980876
0.106157
0.0874792
0.0883148
0.0851919
0.103496
0.125325
0.123831
0.0733673
0.0816735
0.095146
0.115897
0.0901079
0.0765387
0.085566
0.0913793
0.0892237
0.0774087
0.0944184
0.113184
0.083689
0.272148
0.0864063
0.150992
0.0729822
0.104859
0.0971453
0.0904378
0.14902
0.0991213
0.0826391
0.0871239
0.115837
0.0775491
0.109718
0.123253
0.081182
0.0854897
0.0868782
0.0735731
0.0741127
0.0897181
0.0798881
0.0709706
0.0841474
0.107617
0.0866623
0.0893064
0.0775791
0.0912643
0.0981297
0.0918428
0.0768186
0.104262
0.155349
0.0753991
0.0792261
0.112412
0.0915022
0.0733525
0.198874
0.202345
0.117469
0.0879397
0.133456
0.111577
0.0758683
0.0820412
0.0797828
0.087327
0.143223
0.0777758
0.0900793
0.104598
0.0753106
0.112916
0.11041
0.0880258
0.120806
0.0733923
0.0958405
0.0668666
0.0804061
0.0764652
0.0894634
0.0931225
0.0816286
0.0741527
0.0863826
0.220643
0.0899694
0.202264
0.122331
0.0931887
0.0745781
0.0886078
0.0751652
0.0904185
0.146907
0.0711497
0.0918259
0.0998414
0.0764873
0.0773
0.102357
0.095763
0.112888
0.0726783
0.0752078
0.116407
0.0846332
0.0952865
0.100304
0.211506
0.104203
0.0903997
0.080047
0.104504
0.0956249
0.0883493
0.0691191
0.0817397
0.0981245
0.123318
0.087772
0.0893007
0.185443
0.0660791
0.0784332
0.0767428
0.111015
0.108704
0.0974454
0.0730381
0.0712079
0.117467
0.123352
0.0792625
0.21978
0.104856
0.0764394
0.0786207
0.331504
0.293889
0.175174
0.166538
0.196903
0.178127
0.0821223
0.0999896
0.120186
0.0903802
0.0981302
0.294896
0.1999
0.219785
0.105678
0.0907387
0.0792715
0.0889404
0.0679952
0.0681725
0.0749678
0.0877493
0.0867077
0.120901
0.200453
0.238629
0.102913
0.120518
0.0707567
0.0951424
0.232203
0.084697
0.0929061
0.0764528
0.0668623
0.08865
0.159325
0.0823756
0.108891
0.109267
0.0689228
0.112755
0.144364
0.0715665
0.117636
0.0962789
0.134311
0.068267
0.0894041
0.12427
0.121106
0.119824
0.0794894
0.0802826
0.0938164
0.0950815
0.0852996
0.0870603
0.0674451
0.072361
0.0883893
0.0902037
0.111937
0.0693439
0.104075
0.242754
0.109777
0.105658
0.091501
0.111136
0.073994
0.0693702
0.0689331
0.105986
0.141578
0.0858185
0.179419
0.0894412
0.0914412
0.0819127
0.102913
0.0786164
0.072202
0.0706929
0.193671
0.116358
0.115044
0.133131
0.111739
0.139744
0.115473
0.116013
0.0965932
0.114788
0.101346
0.108071
0.082219
0.0738115
0.0739361
0.0782703
0.110689
0.136864
0.0940484
0.0960167
0.108297
0.0883482
0.0761035
0.0861025
0.0956567
0.112385
0.102465
0.106566
0.079375
0.0770107
0.156553
0.102816
0.10947
0.0791815
0.0778619
0.0770877
0.113048
0.156776
0.136526
0.0944633
0.0852696
0.0818673
0.111983
0.105886
0.105092
0.105996
0.102543
0.114632
0.131477
0.105997
0.116642
0.08548
0.0815592
0.0811285
0.0967422
0.121985
0.123987
0.122056
0.123489
0.216224
0.134222
0.122978
0.113713
0.10751
0.0853458
0.107579
0.132524
0.124854
0.104679
0.0864054
0.130255
0.1158
0.105209
0.0958963
0.0874798
0.137673
0.137841
0.159892
0.123597
0.121266
0.124509
0.118661
0.1015
0.123681
0.0893844
0.104212
0.141039
0.183779
0.10968
0.108877
0.126402
0.11755
0.13833
0.0981834
0.105048
0.0927297
0.110499
0.106152
0.102335
0.114971
0.111952
0.137954
0.125811
0.187666
0.122838
0.132733
0.140226
0.121508
0.116527
0.102594
0.207674
0.142359
0.0968814
0.132407
0.101958
0.130327
0.100762
0.102817
0.0980966
0.107452
0.0993199
0.100194
0.100844
0.101328
0.172663
0.161583
0.158358
0.101208
0.103762
0.114853
0.112065
0.1096
0.116585
0.0969599
0.115912
0.119344
0.127337
0.136812
0.11379
0.165634
0.127968
0.107487
0.107042
0.120729
0.126098
0.102486
0.124147
0.108162
0.114178
0.115177
0.102506
0.157788
0.179122
0.144791
0.101952
0.109482
0.111247
0.0929214
0.150057
0.286172
0.190869
0.164437
0.137866
0.114285
0.246351
0.302935
0.325468
0.111503
0.101306
0.0965372
0.0887508
0.154342
0.141678
0.192493
0.226468
0.236391
0.182067
0.269273
0.146173
0.158515
0.102726
0.0873673
0.14073
0.228898
0.183624
0.119854
0.105089
0.228884
0.108643
0.0829891
0.13542
0.143753
0.109686
0.110453
0.11283
0.132707
0.158045
0.108338
0.0876666
0.112149
0.134962
0.1366
0.0966726
0.0783811
0.0812125
0.151426
0.153538
0.151243
0.103567
0.118917
0.137918
0.128713
0.158779
0.153631
0.160126
0.0819191
0.11944
0.0949799
0.1134
0.114584
0.0756266
0.0871716
0.132545
0.0936608
0.146182
0.0943951
0.108061
0.117514
0.166814
0.180926
0.114126
0.235159
0.121226
0.122944
0.121932
0.0719918
0.228064
0.229213
0.101481
0.119484
0.126524
0.085388
0.0759006
0.130282
0.137005
0.220464
0.217241
0.187797
0.108969
0.0959139
0.0921554
0.0709971
0.0734621
0.0885412
0.18059
0.187695
0.198073
0.10887
0.198783
0.207156
0.121291
0.113731
0.0793083
0.12555
0.096089
0.112999
0.105452
0.103302
0.0898749
0.141581
0.175975
0.09009
0.160478
0.100698
0.0971168
0.0942089
0.0838677
0.0747298
0.0711662
0.10233
0.0728514
0.0746875
0.0988789
0.14682
0.174817
0.0996299
0.0940628
0.0786794
0.0846943
0.0827256
0.0850757
0.0847561
0.0720206
0.0742467
0.0988695
0.173136
0.104095
0.0943708
0.0773738
0.109463
0.0724837
0.0724102
0.132619
0.122563
0.0917314
0.0716018
0.0732605
0.072072
0.0919965
0.139975
0.0715488
0.176335
0.0792465
0.107892
0.122428
0.135117
0.140698
0.146064
0.152138
0.155832
0.15888
0.161839
0.166058
0.169997
0.165653
0.153393
0.134414
0.110176
0.0903198
0.0829211
0.111129
0.140669
0.157043
0.158962
0.14487
0.118914
0.0916425
0.0815814
0.080116
0.0772306
0.0742182
0.0691015
0.0648402
0.0652574
0.068098
0.0712352
0.070465
0.0657826
0.0657354
0.0657286
0.0635301
0.0650827
0.0751121
0.0821564
0.100551
0.109901
0.111738
0.10762
0.109336
0.189912
0.211057
0.216644
0.212814
0.231161
0.277861
0.320149
0.327372
0.318211
0.309748
0.297227
0.272275
0.233581
0.194299
0.156561
0.126389
0.12977
0.233559
0.29466
0.319012
0.334098
0.338536
0.323738
0.267593
0.201122
0.144156
0.106817
