# vtk DataFile Version 1.0
Unstructured Grid Example
ASCII

DATASET UNSTRUCTURED_GRID
POINTS 4705 float
0 192 0
291 121 0
105 1 0
421 188 0
142 20 0
33 16 0
195 70 0
185 122 0
120 426 0
51 488 0
199 434 0
399 280 0
405 287 0
372 266 0
326 162 0
372 74 0
448 71 0
302 33 0
17 90 0
6 89 0
11 42 0
35 67 0
85 78 0
101 26 0
179 259 0
192 108 0
170 221 0
81 103 0
28 318 0
9 225 0
1 310 0
37 358 0
70 342 0
78 342 0
31 383 0
68 384 0
54 459 0
85 494 0
161 409 0
171 448 0
156 407 0
124 381 0
127 360 0
184 337 0
89 354 0
237 275 0
196 270 0
244 332 0
196 336 0
196 381 0
256 344 0
235 419 0
378 503 0
385 510 0
502 499 0
362 289 0
507 268 0
385 288 0
353 284 0
463 252 0
498 206 0
452 214 0
370 101 0
332 207 0
195 205 0
196 103 0
237 75 0
235 21 0
259 60 0
269 97 0
340 62 0
319 10 0
407 90 0
14 22 0
9 6 0
15 81 0
13 98 0
13 111 0
8 126 0
24 64 0
20 68 0
58 55 0
107 44 0
68 1 0
75 1 0
29 10 0
129 63 0
108 18 0
142 64 0
150 57 0
186 61 0
167 63 0
200 37 0
199 108 0
206 119 0
195 76 0
181 110 0
180 102 0
166 97 0
143 77 0
168 140 0
165 135 0
171 136 0
172 150 0
182 148 0
196 150 0
192 161 0
208 217 0
210 200 0
200 223 0
188 189 0
165 228 0
177 228 0
184 212 0
62 226 0
150 226 0
136 206 0
160 206 0
81 150 0
148 156 0
156 175 0
12 127 0
55 126 0
38 140 0
6 141 0
43 152 0
3 201 0
14 205 0
4 318 0
3 334 0
12 327 0
43 318 0
48 322 0
99 319 0
72 336 0
86 339 0
59 377 0
58 351 0
53 360 0
14 357 0
51 347 0
10 431 0
16 421 0
18 434 0
40 450 0
39 467 0
56 490 0
56 474 0
94 504 0
86 506 0
75 499 0
71 488 0
63 473 0
88 471 0
76 464 0
177 355 0
129 341 0
174 350 0
136 379 0
154 389 0
165 404 0
172 416 0
184 466 0
189 498 0
191 452 0
195 437 0
178 437 0
201 390 0
191 378 0
181 301 0
207 309 0
208 300 0
178 318 0
122 337 0
106 306 0
110 321 0
179 264 0
154 292 0
180 254 0
189 245 0
189 298 0
195 281 0
199 297 0
232 154 0
221 251 0
226 179 0
235 270 0
240 271 0
305 156 0
239 315 0
251 321 0
233 289 0
222 289 0
210 274 0
213 298 0
211 286 0
244 352 0
222 334 0
211 358 0
223 381 0
226 425 0
232 406 0
214 387 0
278 420 0
301 513 0
271 409 0
281 386 0
245 367 0
294 352 0
257 334 0
375 489 0
422 487 0
345 478 0
420 503 0
416 507 0
421 513 0
388 513 0
474 505 0
425 510 0
461 502 0
435 495 0
430 490 0
512 386 0
474 349 0
404 271 0
510 281 0
467 260 0
375 296 0
370 297 0
360 335 0
344 340 0
393 165 0
374 228 0
319 170 0
459 193 0
504 235 0
505 160 0
507 225 0
362 115 0
386 125 0
423 109 0
503 108 0
374 105 0
402 82 0
460 79 0
314 98 0
318 94 0
328 75 0
356 107 0
341 125 0
323 127 0
357 134 0
293 135 0
306 132 0
243 138 0
233 121 0
233 150 0
222 134 0
224 145 0
227 107 0
215 76 0
250 66 0
285 69 0
288 71 0
306 107 0
294 99 0
295 52 0
345 64 0
297 63 0
291 41 0
289 45 0
220 55 0
219 47 0
238 25 0
211 4 0
218 24 0
249 18 0
264 15 0
267 1 0
269 36 0
407 1 0
414 1 0
461 24 0
401 30 0
384 32 0
398 34 0
433 44 0
498 48 0
464 48 0
507 49 0
512 35 0
504 27 0
510 1 0
479 9 0
15 7 0
0 3 0
24 9 0
35 9 0
63 1 0
40 7 0
33 22 0
67 10 0
41 25 0
32 30 0
31 39 0
20 28 0
19 10 0
10 71 0
23 71 0
6 69 0
15 73 0
3 82 0
11 83 0
19 87 0
30 87 0
34 95 0
48 75 0
29 74 0
38 74 0
30 61 0
63 44 0
80 40 0
95 39 0
102 46 0
97 58 0
85 96 0
95 82 0
89 84 0
106 82 0
137 88 0
132 76 0
138 62 0
141 47 0
140 43 0
114 38 0
131 23 0
137 23 0
131 29 0
114 25 0
109 28 0
98 31 0
83 31 0
115 7 0
114 3 0
99 8 0
115 15 0
116 11 0
132 1 0
147 21 0
153 7 0
164 1 0
159 7 0
161 11 0
164 25 0
149 25 0
169 32 0
172 38 0
178 41 0
186 22 0
165 19 0
189 7 0
174 1 0
192 10 0
191 14 0
195 14 0
200 5 0
201 14 0
208 6 0
204 8 0
208 23 0
210 20 0
213 48 0
204 46 0
199 28 0
195 33 0
194 23 0
201 50 0
192 80 0
194 57 0
201 57 0
206 78 0
209 58 0
212 61 0
211 88 0
212 92 0
203 94 0
194 96 0
192 85 0
189 95 0
192 89 0
177 86 0
183 94 0
179 69 0
182 67 0
180 62 0
177 66 0
181 58 0
163 72 0
166 55 0
170 75 0
149 80 0
171 88 0
169 92 0
175 89 0
171 158 0
167 106 0
170 112 0
174 162 0
166 166 0
175 168 0
176 147 0
187 165 0
177 130 0
182 126 0
185 118 0
184 106 0
177 122 0
204 116 0
188 136 0
199 120 0
204 122 0
205 133 0
207 125 0
208 130 0
210 168 0
214 171 0
210 159 0
203 158 0
201 162 0
202 169 0
198 138 0
202 175 0
198 174 0
195 181 0
204 172 0
205 186 0
209 179 0
210 172 0
207 209 0
211 194 0
203 201 0
201 204 0
199 211 0
198 193 0
194 188 0
187 206 0
191 212 0
184 202 0
191 199 0
183 186 0
182 176 0
194 177 0
168 185 0
177 182 0
178 188 0
177 192 0
164 197 0
180 213 0
181 199 0
110 203 0
120 210 0
163 214 0
94 209 0
73 204 0
59 206 0
95 198 0
79 178 0
55 181 0
96 187 0
140 176 0
162 179 0
163 171 0
118 156 0
97 167 0
161 130 0
162 114 0
106 109 0
146 98 0
163 109 0
52 114 0
81 112 0
50 128 0
89 130 0
54 156 0
68 139 0
72 170 0
35 137 0
45 141 0
19 129 0
36 125 0
17 119 0
16 101 0
38 108 0
0 111 0
7 105 0
4 115 0
12 119 0
1 120 0
5 131 0
7 136 0
11 147 0
7 160 0
13 175 0
13 141 0
18 142 0
23 176 0
22 150 0
15 199 0
37 212 0
7 209 0
6 198 0
0 212 0
0 187 0
0 196 0
62 298 0
44 280 0
35 309 0
57 310 0
14 321 0
50 327 0
88 305 0
82 324 0
84 311 0
81 300 0
84 290 0
78 241 0
63 283 0
104 226 0
91 230 0
109 237 0
110 216 0
134 244 0
134 234 0
116 248 0
150 327 0
155 306 0
146 250 0
145 306 0
106 250 0
105 263 0
116 260 0
114 332 0
104 333 0
114 328 0
143 333 0
150 332 0
154 330 0
146 330 0
148 344 0
156 337 0
144 338 0
116 335 0
105 340 0
112 336 0
104 348 0
84 343 0
89 344 0
99 347 0
99 334 0
69 332 0
87 328 0
69 328 0
47 340 0
21 338 0
8 333 0
9 342 0
12 345 0
18 347 0
36 347 0
10 369 0
0 377 0
17 369 0
36 354 0
49 376 0
56 370 0
22 449 0
41 378 0
44 406 0
14 442 0
5 435 0
0 430 0
0 417 0
11 485 0
0 456 0
31 485 0
24 494 0
23 504 0
33 505 0
14 513 0
56 498 0
42 508 0
39 513 0
47 489 0
38 488 0
48 465 0
40 459 0
69 493 0
60 487 0
73 495 0
60 500 0
78 502 0
60 513 0
71 509 0
116 513 0
131 513 0
83 509 0
82 505 0
107 504 0
123 497 0
79 483 0
150 448 0
150 477 0
139 453 0
135 416 0
72 451 0
60 407 0
62 467 0
107 392 0
87 381 0
67 359 0
125 394 0
133 353 0
141 363 0
144 389 0
164 330 0
158 332 0
170 333 0
172 323 0
174 317 0
176 322 0
179 346 0
180 361 0
175 360 0
171 337 0
165 349 0
170 353 0
168 346 0
166 384 0
162 362 0
167 365 0
169 410 0
169 419 0
165 421 0
160 420 0
173 420 0
171 436 0
178 414 0
177 410 0
176 389 0
171 392 0
171 399 0
184 422 0
183 417 0
186 426 0
183 437 0
180 449 0
185 450 0
181 444 0
186 433 0
192 434 0
195 431 0
193 407 0
191 402 0
197 404 0
207 400 0
200 383 0
208 396 0
197 356 0
196 352 0
186 381 0
193 357 0
185 374 0
193 319 0
187 329 0
193 348 0
203 327 0
214 313 0
213 320 0
212 347 0
203 299 0
201 311 0
202 295 0
207 291 0
206 285 0
203 268 0
206 266 0
193 273 0
186 268 0
199 274 0
200 287 0
186 289 0
191 312 0
196 312 0
180 305 0
184 297 0
171 307 0
170 312 0
170 302 0
163 313 0
161 307 0
165 275 0
164 282 0
160 289 0
174 293 0
177 291 0
177 270 0
185 285 0
178 245 0
186 247 0
183 250 0
175 242 0
172 248 0
171 240 0
157 253 0
162 235 0
159 240 0
167 237 0
171 230 0
180 236 0
174 222 0
183 239 0
195 222 0
190 216 0
193 238 0
191 241 0
191 261 0
195 248 0
189 257 0
199 247 0
211 261 0
200 265 0
207 246 0
204 243 0
199 218 0
204 237 0
219 206 0
224 183 0
214 231 0
219 245 0
216 258 0
215 263 0
227 257 0
225 261 0
237 258 0
226 233 0
234 223 0
225 191 0
237 185 0
290 193 0
264 196 0
303 194 0
310 199 0
322 179 0
315 187 0
357 198 0
267 217 0
276 202 0
338 249 0
263 264 0
261 256 0
251 214 0
239 231 0
251 282 0
248 270 0
324 279 0
326 265 0
346 286 0
343 290 0
330 292 0
272 331 0
341 301 0
331 299 0
271 313 0
244 307 0
244 336 0
238 323 0
238 308 0
229 313 0
229 300 0
229 293 0
229 287 0
228 278 0
227 269 0
216 285 0
220 267 0
223 312 0
222 322 0
216 327 0
225 332 0
225 336 0
219 342 0
216 339 0
237 342 0
242 343 0
250 350 0
253 337 0
240 351 0
251 364 0
260 364 0
238 355 0
234 354 0
228 354 0
218 366 0
218 389 0
218 385 0
228 397 0
234 412 0
241 415 0
227 415 0
232 439 0
249 426 0
251 454 0
242 424 0
250 421 0
248 373 0
254 403 0
243 396 0
260 420 0
284 417 0
267 419 0
281 435 0
274 435 0
263 442 0
286 513 0
291 459 0
327 500 0
315 513 0
289 430 0
302 422 0
292 421 0
289 413 0
280 408 0
317 377 0
322 409 0
278 391 0
266 389 0
263 394 0
261 380 0
264 350 0
263 340 0
263 376 0
266 370 0
268 352 0
272 341 0
270 366 0
394 286 0
372 292 0
382 293 0
396 300 0
397 289 0
418 286 0
399 317 0
422 301 0
390 303 0
389 311 0
382 309 0
364 309 0
376 328 0
384 505 0
385 496 0
370 505 0
395 513 0
378 513 0
374 513 0
364 513 0
439 507 0
400 512 0
417 513 0
409 504 0
418 499 0
418 469 0
403 450 0
441 496 0
472 493 0
470 500 0
480 507 0
446 510 0
449 513 0
480 513 0
496 502 0
506 505 0
499 512 0
506 499 0
488 495 0
504 495 0
504 482 0
512 352 0
512 305 0
512 342 0
499 333 0
443 329 0
467 311 0
483 307 0
450 285 0
446 282 0
445 292 0
454 301 0
464 300 0
468 290 0
512 292 0
492 266 0
503 282 0
489 277 0
498 260 0
496 256 0
508 252 0
471 263 0
461 261 0
467 266 0
477 269 0
465 270 0
464 275 0
468 275 0
429 267 0
448 265 0
456 272 0
426 272 0
410 278 0
385 267 0
359 276 0
414 255 0
407 253 0
365 262 0
438 265 0
457 264 0
461 265 0
458 258 0
445 241 0
456 241 0
443 248 0
426 243 0
425 234 0
408 244 0
412 234 0
397 209 0
388 228 0
401 184 0
426 201 0
456 185 0
467 220 0
463 233 0
468 195 0
491 190 0
472 206 0
475 233 0
492 247 0
490 234 0
490 252 0
512 250 0
498 252 0
504 245 0
508 242 0
503 240 0
512 206 0
500 179 0
474 157 0
485 158 0
468 145 0
451 142 0
359 169 0
413 171 0
362 104 0
357 121 0
385 135 0
426 103 0
440 97 0
469 96 0
512 126 0
416 93 0
512 96 0
478 95 0
479 89 0
485 89 0
426 80 0
512 79 0
368 79 0
354 78 0
415 81 0
367 83 0
370 86 0
364 85 0
377 95 0
342 120 0
350 134 0
351 113 0
338 106 0
344 88 0
337 91 0
350 80 0
306 88 0
335 82 0
330 88 0
336 112 0
308 122 0
326 124 0
319 131 0
316 142 0
312 146 0
320 143 0
327 144 0
328 148 0
338 146 0
348 142 0
330 161 0
337 178 0
321 161 0
318 175 0
311 169 0
318 153 0
307 151 0
278 161 0
300 168 0
291 140 0
276 140 0
284 138 0
302 112 0
254 114 0
258 109 0
260 116 0
275 118 0
252 128 0
266 179 0
268 135 0
236 139 0
243 144 0
230 135 0
228 169 0
223 156 0
217 137 0
222 176 0
234 131 0
223 118 0
225 127 0
235 116 0
242 121 0
245 126 0
243 132 0
265 107 0
[...]
CELL_DATA 9165
COLOR_SCALARS ColorSpace 1
0.240523
0.571242
0.418301
0.517647
0.491503
0.568627
0.428758
0.721569
0.381699
0.457516
0.403922
0.333333
0.581699
0.413072
0.267974
0.368627
0.508497
0.547712
0.631373
0.403922
0.746405
0.368627
0.386928
0.509804
0.427451
0.389542
0.413072
0.465359
0.449673
0.551634
0.444444
0.347712
0.372549
0.447059
0.177778
0.230065
0.471895
0.503268
0.556863
0.298039
0.504575
0.44183
0.52549
0.428758
0.4
0.54902
0.376471
0.449673
0.436601
0.601307
0.402614
0.320261
0.470588
0.635294
0.538562
0.465359
0.509804
0.528105
0.504575
0.530719
0.571242
0.543791
0.734641
0.405229
0.51634
0.467974
0.532026
0.413072
0.699346
0.559477
0.322876
0.545098
0.375163
0.500654
0.577778
0.452288
0.508497
0.381699
0.427451
0.426144
0.541176
0.419608
0.542484
0.498039
0.477124
0.45098
0.333333
0.416993
0.44183
0.4
0.394771
0.435294
0.396078
0.447059
0.286275
0.465359
0.605229
0.185621
0.592157
0.301961
0.637908
0.355556
0.48366
0.439216
0.535948
0.350327
0.43268
0.342484
0.477124
0.384314
0.559477
0.552941
0.481046
0.386928
0.388235
0.380392
0.573856
0.466667
0.501961
0.407843
0.396078
0.645752
0.586928
0.36732
0.394771
0.406536
0.440523
0.398693
0.396078
0.470588
0.40915
0.423529
0.490196
0.657516
0.386928
0.428758
0.386928
0.597386
0.39085
0.636601
0.401307
0.626144
0.500654
0.503268
0.481046
0.287582
0.541176
0.201307
0.201307
0.486275
0.50719
0.616993
0.479739
0.477124
0.284967
0.470588
0.494118
0.532026
0.517647
0.532026
0.433987
0.518954
0.545098
0.460131
0.533333
0.457516
0.550327
0.530719
0.362092
0.290196
0.284967
0.396078
0.401307
0.411765
0.402614
0.381699
0.284967
0.460131
0.386928
0.518954
0.48366
0.330719
0.398693
0.420915
0.482353
0.339869
0.401307
0.448366
0.346405
0.366013
0.524183
0.315033
0.50719
0.571242
0.31634
0.563399
0.405229
0.40915
0.576471
0.363399
0.379085
0.341176
0.394771
0.355556
0.416993
0.371242
0.419608
0.386928
0.422222
0.503268
0.403922
0.373856
0.464052
0.386928
0.588235
0.543791
0.411765
0.393464
0.413072
0.403922
0.346405
0.324183
0.505882
0.433987
0.460131
0.491503
0.598693
0.431373
0.589542
0.615686
0.418301
0.628758
0.397386
0.49281
0.233987
0.552941
0.488889
0.620915
0.505882
0.603922
0.312418
0.504575
0.515033
0.636601
0.431373
0.598693
0.515033
0.47451
0.603922
0.469281
0.368627
0.70719
0.359477
0.649673
0.488889
0.372549
0.473203
0.342484
0.346405
0.551634
0.356863
0.393464
0.479739
0.601307
0.34902
0.373856
0.437908
0.484967
0.428758
0.213072
0.554248
0.696732
0.226144
0.679739
0.44183
0.257516
0.423529
0.383007
0.564706
0.464052
0.546405
0.554248
0.458824
0.534641
0.466667
0.352941
0.496732
0.247059
0.315033
0.235294
0.52549
0.284967
0.466667
0.31634
0.189542
0.384314
0.196078
0.547712
0.537255
0.547712
0.499346
0.402614
0.403922
0.368627
0.320261
0.386928
0.326797
0.538562
0.469281
0.465359
0.568627
0.40915
0.393464
0.320261
0.368627
0.511111
0.602614
0.524183
0.618301
0.589542
0.375163
0.597386
0.342484
0.539869
0.298039
0.375163
0.381699
0.449673
0.423529
0.413072
0.355556
0.440523
0.334641
0.32549
0.424837
0.279739
0.328105
0.397386
0.411765
0.411765
0.601307
0.418301
0.452288
0.392157
0.50719
0.304575
0.422222
0.39085
0.406536
0.339869
0.36732
0.39085
0.34902
0.479739
0.381699
0.48366
0.355556
0.424837
0.422222
0.422222
0.410458
0.36732
0.428758
0.427451
0.543791
0.573856
0.551634
0.414379
0.616993
0.377778
0.427451
0.460131
0.538562
0.418301
0.437908
0.47451
0.445752
0.372549
0.48366
0.380392
0.43268
0.55817
0.569935
0.176471
0.424837
0.249673
0.265359
0.262745
0.185621
0.437908
0.473203
0.760784
0.745098
0.826144
0.177778
0.496732
0.556863
0.575163
0.505882
0.364706
0.443137
0.487582
0.315033
0.55817
0.518954
0.564706
0.528105
0.377778
0.269281
0.440523
0.559477
0.484967
0.535948
0.30719
0.458824
0.84183
0.556863
0.462745
0.168627
0.288889
0.321569
0.467974
0.398693
0.281046
0.405229
0.410458
0.491503
0.521569
0.499346
0.433987
0.547712
0.55817
0.538562
0.415686
0.504575
0.407843
0.384314
0.359477
0.381699
0.467974
0.547712
0.498039
0.60915
0.547712
0.649673
0.529412
0.550327
0.594771
0.649673
0.586928
0.576471
0.453595
0.475817
0.424837
0.562092
0.486275
0.55817
0.491503
0.580392
0.411765
0.524183
0.362092
0.4
0.675817
0.40915
0.482353
0.524183
0.559477
0.593464
0.39085
0.695425
0.522876
0.509804
0.596078
0.377778
0.550327
0.405229
0.406536
0.526797
0.398693
0.392157
0.486275
0.392157
0.508497
0.573856
0.477124
0.522876
0.534641
0.440523
0.375163
0.312418
0.45098
0.649673
0.50719
0.343791
0.424837
0.322876
0.380392
0.341176
0.433987
0.373856
0.332026
0.528105
0.435294
0.406536
0.465359
0.550327
0.670588
0.273203
0.261438
0.192157
0.240523
0.304575
0.508497
0.389542
0.326797
0.19085
0.294118
0.448366
0.396078
0.299346
0.294118
0.444444
0.207843
0.721569
0.401307
0.398693
0.554248
0.398693
0.427451
0.741176
0.605229
0.478431
0.534641
0.294118
0.415686
0.428758
0.453595
0.431373
0.414379
0.294118
0.614379
0.6
0.631373
0.552941
0.422222
0.537255
0.383007
0.534641
0.513725
0.601307
0.351634
0.478431
0.622222
0.445752
0.542484
0.616993
0.619608
0.589542
0.513725
0.656209
0.583007
0.461438
0.68366
0.631373
0.521569
0.453595
0.522876
0.500654
0.546405
0.44183
0.467974
0.466667
0.571242
0.52549
0.566013
0.392157
0.47451
0.486275
0.54902
0.491503
0.385621
0.48366
0.501961
0.461438
0.511111
0.490196
0.458824
0.513725
0.495425
0.448366
0.479739
0.354248
0.159477
0.500654
0.388235
0.317647
0.266667
0.477124
0.547712
0.464052
0.318954
0.210458
0.445752
0.179085
0.51634
0.593464
0.505882
0.539869
0.440523
0.36732
0.524183
0.505882
0.499346
0.436601
0.505882
0.521569
0.40915
0.513725
0.320261
0.51634
0.447059
0.402614
0.443137
0.473203
0.460131
0.596078
0.393464
0.43268
0.577778
0.501961
0.583007
0.48366
0.652288
0.6
0.444444
0.47451
0.499346
0.426144
0.522876
0.288889
0.380392
0.343791
0.522876
0.313725
0.247059
0.419608
0.230065
0.462745
0.333333
0.231373
0.419608
0.402614
0.419608
0.444444
0.379085
0.52549
0.436601
0.477124
0.467974
0.383007
0.479739
0.539869
0.518954
0.496732
0.448366
0.394771
0.487582
0.405229
0.326797
0.406536
0.423529
0.415686
0.318954
0.345098
0.414379
0.422222
0.23268
0.415686
0.356863
0.334641
0.406536
0.312418
0.435294
0.322876
0.296732
0.287582
0.363399
0.253595
0.288889
0.413072
0.406536
0.422222
0.4
0.423529
0.237908
0.428758
0.275817
0.381699
0.615686
0.414379
0.398693
0.392157
0.345098
0.287582
0.418301
0.39085
0.440523
0.333333
0.415686
0.299346
0.413072
0.388235
0.386928
0.428758
0.296732
0.324183
0.338562
0.305882
0.339869
0.296732
0.324183
0.397386
0.465359
0.398693
0.530719
0.436601
0.416993
0.415686
0.443137
0.4
0.443137
0.447059
0.415686
0.431373
0.458824
0.457516
0.44183
0.405229
0.424837
0.35817
0.436601
0.435294
0.490196
0.464052
0.488889
0.334641
0.428758
0.479739
0.494118
0.36732
0.427451
0.453595
0.352941
0.422222
0.437908
0.380392
0.385621
0.422222
0.326797
0.437908
0.445752
0.422222
0.362092
0.362092
0.402614
0.376471
0.24183
0.411765
0.36732
0.419608
0.389542
0.320261
0.351634
0.308497
0.347712
0.456209
0.354248
0.539869
0.377778
0.398693
0.352941
0.407843
0.347712
0.385621
0.350327
0.411765
0.534641
0.328105
0.389542
0.373856
0.360784
0.383007
0.355556
0.436601
0.320261
0.368627
0.300654
0.383007
0.339869
0.354248
0.415686
0.433987
0.303268
0.467974
0.360784
0.350327
0.546405
0.363399
0.360784
0.346405
0.44183
0.354248
0.338562
0.416993
0.458824
0.392157
0.594771
0.379085
0.329412
0.39085
0.36732
0.31634
0.420915
0.35817
0.34902
0.354248
0.396078
0.322876
0.385621
0.308497
0.317647
0.376471
0.371242
0.347712
0.386928
0.392157
0.407843
0.484967
0.356863
0.397386
0.372549
0.396078
0.386928
0.464052
0.447059
0.402614
0.445752
0.394771
0.402614
0.385621
0.431373
0.376471
0.410458
0.386928
0.415686
0.375163
0.407843
0.392157
0.392157
0.440523
0.376471
0.402614
0.406536
0.398693
0.385621
0.401307
0.381699
0.415686
0.418301
0.385621
0.342484
0.31634
0.39085
0.422222
0.443137
0.407843
0.415686
0.397386
0.405229
0.416993
0.398693
0.436601
0.396078
0.440523
0.415686
0.419608
0.4
0.59085
0.543791
0.562092
0.488889
0.440523
0.413072
0.569935
0.55817
0.60915
0.577778
0.465359
0.588235
0.569935
0.556863
0.597386
0.556863
0.628758
0.521569
0.596078
0.636601
0.59085
0.482353
0.499346
0.393464
0.586928
0.396078
0.67451
0.580392
0.618301
0.539869
0.498039
0.654902
0.403922
0.586928
0.615686
0.605229
0.603922
0.462745
0.4
0.392157
0.601307
0.619608
0.494118
0.589542
0.464052
0.619608
0.622222
0.657516
0.613072
0.535948
0.580392
0.501961
0.611765
0.606536
0.345098
0.635294
0.522876
0.423529
0.473203
0.469281
0.45098
0.613072
0.443137
0.471895
0.605229
0.35817
0.508497
0.585621
0.228758
0.20915
0.479739
0.488889
0.478431
0.43268
0.433987
0.509804
0.555556
0.397386
0.520261
0.39085
0.530719
0.375163
0.59085
0.581699
0.586928
0.532026
0.372549
0.228758
0.471895
0.322876
0.586928
0.594771
0.563399
0.192157
0.59085
0.505882
0.576471
0.517647
0.618301
0.539869
0.449673
0.364706
0.566013
0.596078
0.273203
0.512418
0.581699
0.49281
0.579085
0.500654
0.691503
0.486275
0.431373
0.64183
0.658824
0.355556
0.652288
0.478431
0.508497
0.385621
0.481046
0.461438
0.469281
0.48366
0.509804
0.528105
0.505882
0.562092
0.577778
0.511111
0.513725
0.533333
0.554248
0.628758
0.589542
0.551634
0.573856
0.594771
0.563399
0.427451
0.381699
0.529412
0.562092
0.560784
0.589542
0.401307
0.335948
0.343791
0.40915
0.530719
0.584314
0.555556
0.568627
0.512418
0.571242
0.546405
0.576471
0.560784
0.537255
0.333333
0.454902
0.402614
0.291503
0.426144
0.394771
0.372549
0.515033
0.452288
0.430065
0.410458
0.379085
0.436601
0.426144
0.454902
0.338562
0.494118
0.490196
0.443137
0.428758
0.352941
0.388235
0.394771
0.335948
0.389542
0.363399
0.416993
0.298039
0.466667
0.435294
0.428758
0.363399
0.333333
0.273203
0.388235
0.369935
0.448366
0.461438
0.410458
0.356863
0.477124
0.440523
0.661438
0.29281
0.691503
0.23268
0.464052
0.713725
0.581699
0.373856
0.282353
0.384314
0.34902
0.295425
0.243137
0.253595
0.521569
0.364706
0.593464
0.496732
0.44183
0.252288
0.304575
0.559477
0.44183
0.49281
0.475817
0.547712
0.579085
0.530719
0.457516
0.54902
0.541176
0.508497
0.67451
0.410458
0.678431
0.72549
0.55817
0.51634
0.388235
0.649673
0.386928
0.216993
0.252288
0.426144
0.521569
0.494118
0.334641
0.373856
0.539869
0.223529
0.172549
0.401307
0.50719
0.43268
0.227451
0.511111
0.461438
0.503268
0.448366
0.401307
0.546405
0.458824
0.290196
0.224837
0.166013
0.159477
0.188235
0.186928
0.202614
0.398693
0.300654
0.381699
0.430065
0.244444
0.284967
0.473203
0.496732
0.376471
0.299346
0.318954
0.321569
0.426144
0.585621
0.496732
0.481046
0.162092
0.47451
0.539869
0.534641
0.588235
0.55817
0.547712
0.529412
0.569935
0.542484
0.538562
0.551634
0.560784
0.543791
0.498039
0.529412
0.563399
0.572549
0.534641
0.410458
0.528105
0.396078
0.546405
0.539869
0.424837
0.542484
0.490196
0.364706
0.542484
0.533333
0.424837
0.488889
0.447059
0.482353
0.423529
0.457516
0.466667
0.383007
0.517647
0.346405
0.369935
0.407843
0.343791
0.338562
0.335948
0.539869
0.556863
0.326797
0.413072
0.376471
0.401307
0.524183
0.356863
0.389542
0.538562
0.379085
0.447059
0.333333
0.490196
0.473203
0.423529
0.352941
0.381699
0.334641
0.447059
0.383007
0.478431
0.405229
0.556863
0.411765
0.301961
0.423529
0.630065
0.447059
0.426144
0.360784
0.328105
0.487582
0.376471
0.473203
0.377778
0.362092
0.342484
0.300654
0.36732
0.396078
0.322876
0.371242
0.281046
0.435294
0.359477
0.388235
0.482353
0.667974
0.43268
0.532026
0.4
0.428758
0.398693
0.342484
0.383007
0.4
0.392157
0.321569
0.457516
0.154248
0.462745
0.40915
0.499346
0.168627
0.240523
0.636601
0.28366
0.288889
0.388235
0.188235
0.32549
0.211765
0.373856
0.359477
0.328105
0.389542
0.354248
0.338562
0.329412
0.403922
0.320261
0.411765
0.322876
0.329412
0.384314
0.233987
0.430065
0.371242
0.260131
0.36732
0.447059
0.392157
0.375163
0.457516
0.376471
0.517647
0.416993
0.381699
0.379085
0.28366
0.380392
0.40915
0.413072
0.488889
0.380392
0.351634
0.414379
0.414379
0.392157
0.405229
0.410458
0.413072
0.440523
0.456209
0.383007
0.287582
0.371242
0.402614
0.338562
0.339869
0.31634
0.333333
0.376471
0.447059
0.305882
0.380392
0.394771
0.49281
0.379085
0.411765
0.482353
0.389542
0.583007
0.397386
0.550327
0.52549
0.440523
0.401307
0.383007
0.481046
0.43268
0.52549
0.405229
0.39085
0.381699
0.380392
0.415686
0.393464
0.36732
0.377778
0.405229
0.416993
0.366013
0.419608
0.411765
0.4
0.428758
0.418301
0.453595
0.431373
0.445752
0.427451
0.445752
0.464052
0.437908
0.393464
0.526797
0.550327
0.445752
0.393464
0.414379
0.398693
0.422222
0.394771
0.419608
0.405229
0.4
0.407843
0.403922
0.4
0.402614
0.403922
0.402614
0.388235
0.386928
0.388235
0.430065
0.371242
0.377778
0.385621
0.401307
0.363399
0.377778
0.383007
0.389542
0.363399
0.48366
0.530719
0.398693
0.415686
0.385621
0.388235
0.414379
0.377778
0.40915
0.416993
0.449673
0.433987
0.352941
0.373856
0.424837
0.407843
0.473203
0.403922
0.383007
0.415686
0.385621
0.401307
0.414379
0.500654
0.386928
0.426144
0.44183
0.40915
0.50719
0.40915
0.496732
0.69281
0.454902
0.401307
0.542484
0.385621
0.601307
0.721569
0.511111
0.420915
0.65098
0.654902
0.546405
0.533333
0.426144
0.699346
0.564706
0.528105
0.568627
0.529412
0.65098
0.695425
0.687582
0.571242
0.635294
0.50719
0.769935
0.718954
0.704575
0.520261
0.619608
0.533333
0.50719
0.448366
0.633987
0.478431
0.603922
0.460131
0.505882
0.715033
0.76732
0.435294
0.416993
0.691503
0.44183
0.481046
0.415686
0.559477
0.694118
0.65098
0.551634
0.454902
0.653595
0.364706
0.76732
0.40915
0.545098
0.411765
0.4
0.326797
0.415686
0.428758
0.537255
0.360784
0.406536
0.419608
0.291503
0.488889
0.445752
0.39085
0.460131
0.415686
0.402614
0.388235
0.488889
0.426144
0.464052
0.372549
0.428758
0.39085
0.380392
0.329412
0.443137
0.385621
0.369935
0.413072
0.401307
0.388235
0.402614
0.414379
0.433987
0.366013
0.36732
0.359477
0.419608
0.467974
0.40915
0.488889
0.364706
0.647059
0.364706
0.426144
0.449673
0.401307
0.414379
0.583007
0.661438
0.431373
0.569935
0.490196
0.282353
0.362092
0.335948
0.449673
0.287582
0.520261
0.163399
0.162092
0.16732
0.163399
0.677124
0.783007
0.730719
0.772549
0.341176
0.830065
0.518954
0.751634
0.49281
0.572549
0.330719
0.535948
0.639216
0.51634
0.666667
0.709804
0.626144
0.377778
0.777778
0.586928
0.807843
0.326797
0.747712
0.807843
0.588235
0.51634
0.626144
0.577778
0.605229
0.513725
0.524183
0.661438
0.562092
0.580392
0.718954
0.466667
0.569935
0.652288
0.45098
0.337255
0.526797
0.775163
0.68366
0.803922
0.545098
0.750327
0.532026
0.649673
0.717647
0.533333
0.610458
0.579085
0.562092
0.551634
0.55817
0.494118
0.580392
0.667974
0.597386
0.79085
0.6
0.602614
0.371242
0.628758
0.403922
0.491503
0.449673
0.631373
0.598693
0.481046
0.369935
0.626144
0.559477
0.552941
0.648366
0.414379
0.597386
0.512418
0.50719
0.454902
0.512418
0.588235
0.482353
0.503268
0.711111
0.466667
0.633987
0.628758
0.420915
0.547712
0.593464
0.562092
0.518954
0.49281
0.585621
0.555556
0.636601
0.546405
0.575163
0.633987
0.542484
0.560784
0.533333
0.461438
0.424837
0.538562
0.296732
0.437908
0.4
0.228758
0.372549
0.415686
0.462745
0.329412
0.318954
0.236601
0.244444
0.27451
0.352941
0.371242
0.458824
0.482353
0.518954
0.547712
0.54902
0.547712
0.457516
0.499346
0.513725
0.392157
0.563399
0.466667
0.215686
0.396078
0.227451
0.213072
0.233987
0.201307
0.521569
0.628758
0.369935
0.175163
0.495425
0.175163
0.508497
0.288889
0.528105
0.313725
0.458824
0.339869
0.454902
0.895425
0.513725
0.511111
0.541176
0.50719
0.543791
0.54902
0.521569
0.665359
0.568627
0.52549
0.509804
0.631373
0.552941
0.607843
0.500654
0.54902
0.528105
0.539869
0.403922
0.504575
0.34902
0.501961
0.462745
0.411765
0.264052
0.308497
0.264052
0.237908
0.461438
0.342484
0.418301
0.392157
0.47451
0.392157
0.39085
0.475817
0.339869
0.416993
0.4
0.362092
0.398693
0.354248
0.359477
0.385621
0.35817
0.436601
0.652288
0.312418
0.381699
0.440523
0.528105
0.422222
0.402614
0.362092
0.571242
0.389542
0.431373
0.407843
0.413072
0.48366
0.440523
0.737255
0.465359
0.385621
0.433987
0.513725
0.465359
0.560784
0.477124
0.517647
0.452288
0.402614
0.389542
0.405229
0.406536
0.501961
0.402614
0.444444
0.40915
0.524183
0.447059
0.464052
0.467974
0.481046
0.584314
0.481046
0.501961
0.518954
0.435294
0.51634
0.477124
0.530719
0.515033
0.456209
0.478431
0.601307
0.637908
0.465359
0.563399
0.563399
0.504575
0.509804
0.498039
0.465359
0.524183
0.515033
0.51634
0.491503
0.559477
0.494118
0.495425
0.475817
0.491503
0.423529
0.380392
0.478431
0.469281
0.4
0.377778
0.462745
0.381699
0.380392
0.461438
0.362092
0.443137
0.422222
0.471895
0.458824
0.494118
0.509804
0.552941
0.48366
0.593464
0.575163
0.488889
0.550327
0.592157
0.640523
0.732026
0.534641
0.569935
0.694118
0.416993
0.396078
0.494118
0.520261
0.67451
0.677124
0.635294
0.616993
0.546405
0.649673
0.610458
0.513725
0.581699
0.65098
0.589542
0.598693
0.532026
0.568627
0.490196
0.545098
0.542484
0.593464
0.63268
0.597386
0.644444
0.346405
0.44183
0.352941
0.352941
0.605229
0.652288
0.381699
0.413072
0.543791
0.35817
0.388235
0.401307
0.671895
0.473203
0.411765
0.318954
0.59085
0.487582
0.415686
0.465359
0.271895
0.440523
0.311111
0.335948
0.278431
0.376471
0.334641
0.342484
0.194771
0.287582
0.277124
0.606536
0.375163
0.452288
0.338562
0.471895
0.4
0.304575
0.427451
0.469281
0.448366
0.362092
0.443137
0.416993
0.393464
0.392157
0.406536
0.381699
0.422222
0.39085
0.444444
0.420915
0.572549
0.411765
0.488889
0.456209
0.366013
0.491503
0.69281
0.631373
0.460131
0.40915
0.613072
0.512418
0.503268
0.398693
0.386928
0.424837
0.368627
0.376471
0.752941
0.610458
0.615686
0.545098
0.777778
0.368627
0.426144
0.419608
0.715033
0.759477
0.415686
0.257516
0.730719
0.411765
0.433987
0.535948
0.512418
0.406536
0.500654
0.368627
0.445752
0.411765
0.427451
0.486275
0.414379
0.511111
0.406536
0.332026
0.418301
0.559477
0.334641
0.366013
0.475817
0.322876
0.347712
0.366013
0.300654
0.466667
0.343791
0.381699
0.403922
0.338562
0.454902
0.309804
0.410458
0.39085
0.411765
0.4
0.403922
0.385621
0.398693
0.407843
0.383007
0.403922
0.596078
0.524183
0.515033
0.449673
0.402614
0.403922
0.359477
0.452288
0.411765
0.528105
0.424837
0.49281
0.529412
0.423529
0.410458
0.508497
0.386928
0.538562
0.407843
0.427451
0.458824
0.384314
0.670588
0.211765
0.466667
0.311111
0.56732
0.471895
0.364706
0.440523
0.30719
0.410458
0.194771
0.456209
0.433987
0.462745
0.215686
0.355556
0.477124
0.25098
0.235294
0.494118
0.277124
0.281046
0.279739
0.226144
0.237908
0.27451
0.257516
0.224837
0.175163
0.215686
0.192157
0.198693
0.181699
0.193464
0.2
0.186928
0.188235
0.270588
0.192157
0.215686
0.328105
0.290196
0.277124
0.422222
0.351634
0.308497
0.346405
0.346405
0.402614
0.437908
0.29281
0.281046
0.633987
0.43268
0.473203
0.313725
0.339869
0.383007
0.258824
0.376471
0.700654
0.329412
0.461438
0.386928
0.64183
0.444444
0.512418
0.652288
0.389542
0.415686
0.447059
0.504575
0.385621
0.394771
0.420915
0.383007
0.467974
0.392157
0.406536
0.462745
0.403922
0.596078
0.366013
0.389542
0.380392
0.321569
0.321569
0.362092
0.418301
0.413072
0.626144
0.532026
0.705882
0.569935
0.654902
0.518954
0.628758
0.518954
0.611765
0.393464
0.447059
0.396078
0.309804
0.258824
0.423529
0.414379
0.423529
0.410458
0.398693
0.428758
0.407843
0.401307
0.334641
0.445752
0.44183
0.416993
0.439216
0.448366
0.436601
0.439216
0.435294
0.490196
0.422222
0.464052
0.615686
0.426144
0.431373
0.482353
0.448366
0.454902
0.379085
0.405229
0.440523
0.40915
0.397386
0.453595
0.447059
0.424837
0.444444
0.467974
0.469281
0.464052
0.44183
0.475817
0.377778
0.440523
0.47451
0.473203
0.470588
0.470588
0.407843
0.478431
0.428758
0.419608
0.419608
0.473203
0.440523
0.312418
0.345098
0.192157
0.40915
0.252288
0.487582
0.267974
0.505882
0.326797
0.352941
0.576471
0.320261
0.562092
0.481046
0.375163
0.179085
0.49281
0.498039
0.330719
0.218301
0.427451
0.4
0.433987
0.594771
0.330719
0.501961
0.369935
0.355556
0.551634
0.371242
0.471895
0.517647
0.406536
0.356863
0.596078
0.333333
0.484967
0.529412
0.479739
0.467974
0.520261
0.584314
0.644444
0.416993
0.45098
0.585621
0.51634
0.456209
0.592157
0.613072
0.633987
0.581699
0.658824
0.603922
0.677124
0.618301
0.56732
0.551634
0.611765
0.529412
0.576471
0.65098
0.610458
0.666667