# vtk DataFile Version 1.0
Unstructured Grid Example
ASCII

DATASET UNSTRUCTURED_GRID
POINTS 4705 float
1 513 0
6 513 0
10 513 0
14 513 0
28 513 0
34 513 0
39 513 0
44 513 0
49 513 0
56 513 0
60 513 0
64 513 0
68 513 0
72 513 0
79 513 0
86 513 0
91 513 0
96 513 0
102 513 0
116 513 0
131 513 0
149 513 0
165 513 0
188 513 0
208 513 0
231 513 0
258 513 0
286 513 0
301 513 0
315 513 0
324 513 0
334 513 0
342 513 0
348 513 0
352 513 0
364 513 0
374 513 0
378 513 0
388 513 0
395 513 0
404 513 0
408 513 0
417 513 0
421 513 0
427 513 0
436 513 0
443 513 0
449 513 0
454 513 0
460 513 0
473 513 0
480 513 0
494 513 0
506 513 0
19 512 0
357 512 0
400 512 0
413 512 0
431 512 0
464 512 0
485 512 0
499 512 0
361 511 0
369 511 0
381 511 0
440 511 0
470 511 0
491 511 0
512 511 0
385 510 0
392 510 0
425 510 0
434 510 0
446 510 0
451 510 0
478 510 0
482 510 0
0 509 0
25 509 0
30 509 0
35 509 0
53 509 0
66 509 0
71 509 0
77 509 0
83 509 0
408 509 0
457 509 0
473 509 0
501 509 0
505 509 0
509 509 0
5 508 0
42 508 0
47 508 0
60 508 0
90 508 0
366 508 0
399 508 0
404 508 0
468 508 0
488 508 0
12 507 0
56 507 0
99 507 0
357 507 0
362 507 0
375 507 0
412 507 0
416 507 0
420 507 0
439 507 0
443 507 0
462 507 0
480 507 0
484 507 0
495 507 0
51 506 0
74 506 0
86 506 0
344 506 0
350 506 0
395 506 0
424 506 0
428 506 0
512 506 0
18 505 0
28 505 0
33 505 0
67 505 0
82 505 0
370 505 0
384 505 0
389 505 0
432 505 0
465 505 0
474 505 0
492 505 0
500 505 0
506 505 0
23 504 0
39 504 0
45 504 0
62 504 0
94 504 0
107 504 0
337 504 0
403 504 0
409 504 0
436 504 0
446 504 0
452 504 0
469 504 0
478 504 0
482 504 0
0 503 0
55 503 0
378 503 0
415 503 0
420 503 0
441 503 0
456 503 0
486 503 0
503 503 0
7 502 0
71 502 0
78 502 0
393 502 0
399 502 0
461 502 0
496 502 0
511 502 0
12 501 0
42 501 0
52 501 0
64 501 0
85 501 0
357 501 0
366 501 0
406 501 0
474 501 0
37 500 0
48 500 0
60 500 0
245 500 0
327 500 0
411 500 0
425 500 0
432 500 0
465 500 0
470 500 0
478 500 0
482 500 0
491 500 0
21 499 0
28 499 0
75 499 0
206 499 0
314 499 0
344 499 0
351 499 0
418 499 0
446 499 0
452 499 0
486 499 0
502 499 0
506 499 0
56 498 0
81 498 0
89 498 0
141 498 0
189 498 0
510 498 0
44 497 0
65 497 0
69 497 0
123 497 0
372 497 0
401 497 0
48 496 0
52 496 0
171 496 0
379 496 0
385 496 0
393 496 0
441 496 0
462 496 0
468 496 0
499 496 0
0 495 0
73 495 0
77 495 0
95 495 0
408 495 0
423 495 0
435 495 0
483 495 0
488 495 0
504 495 0
24 494 0
36 494 0
55 494 0
61 494 0
85 494 0
358 494 0
365 494 0
478 494 0
494 494 0
8 493 0
44 493 0
65 493 0
69 493 0
283 493 0
455 493 0
472 493 0
16 492 0
52 492 0
29 491 0
338 491 0
399 491 0
501 491 0
507 491 0
512 491 0
56 490 0
62 490 0
81 490 0
349 490 0
415 490 0
430 490 0
47 489 0
66 489 0
76 489 0
375 489 0
439 489 0
448 489 0
496 489 0
38 488 0
51 488 0
71 488 0
103 488 0
463 488 0
43 487 0
60 487 0
388 487 0
407 487 0
422 487 0
481 487 0
22 486 0
54 486 0
90 486 0
487 486 0
512 486 0
11 485 0
31 485 0
68 485 0
474 485 0
0 484 0
47 484 0
73 484 0
362 484 0
58 483 0
79 483 0
181 483 0
233 483 0
51 482 0
62 482 0
256 482 0
397 482 0
504 482 0
43 481 0
211 481 0
67 480 0
443 480 0
26 479 0
34 479 0
48 479 0
55 479 0
332 479 0
512 479 0
6 478 0
17 478 0
73 478 0
95 478 0
345 478 0
428 478 0
453 478 0
463 478 0
487 478 0
60 477 0
150 477 0
371 477 0
385 477 0
496 477 0
52 476 0
408 476 0
42 475 0
68 475 0
56 474 0
79 474 0
277 474 0
309 474 0
505 474 0
47 473 0
63 473 0
0 472 0
32 472 0
88 471 0
110 471 0
476 471 0
52 470 0
19 469 0
128 469 0
418 469 0
397 468 0
9 467 0
39 467 0
62 467 0
169 467 0
195 467 0
56 466 0
184 466 0
512 466 0
48 465 0
244 465 0
362 465 0
76 464 0
488 464 0
28 463 0
444 462 0
0 461 0
204 461 0
12 460 0
40 459 0
54 459 0
264 459 0
277 459 0
291 459 0
333 459 0
502 459 0
5 458 0
19 458 0
62 458 0
99 458 0
191 458 0
216 458 0
184 457 0
0 456 0
157 456 0
31 455 0
47 455 0
166 455 0
174 454 0
227 454 0
239 454 0
251 454 0
4 453 0
139 453 0
314 453 0
382 453 0
9 452 0
85 452 0
191 452 0
0 451 0
72 451 0
460 451 0
512 451 0
40 450 0
185 450 0
199 450 0
207 450 0
403 450 0
22 449 0
180 449 0
429 449 0
6 448 0
15 448 0
150 448 0
171 448 0
487 448 0
0 447 0
58 447 0
164 446 0
273 446 0
176 445 0
110 444 0
181 444 0
191 444 0
199 444 0
222 444 0
255 444 0
294 444 0
1 443 0
186 443 0
211 443 0
241 443 0
284 443 0
8 442 0
14 442 0
263 442 0
20 441 0
37 441 0
172 441 0
248 441 0
4 440 0
188 439 0
202 439 0
232 439 0
154 438 0
269 438 0
28 437 0
162 437 0
178 437 0
183 437 0
195 437 0
1 436 0
48 436 0
137 436 0
171 436 0
210 436 0
303 436 0
362 436 0
5 435 0
13 435 0
84 435 0
274 435 0
281 435 0
18 434 0
192 434 0
199 434 0
242 434 0
257 434 0
177 433 0
186 433 0
236 433 0
263 433 0
326 433 0
181 432 0
205 432 0
224 432 0
250 432 0
268 432 0
386 432 0
10 431 0
166 431 0
195 431 0
217 431 0
0 430 0
4 430 0
23 430 0
152 430 0
200 430 0
273 430 0
289 430 0
512 430 0
16 429 0
159 429 0
245 429 0
37 428 0
175 428 0
181 428 0
190 428 0
254 428 0
264 428 0
211 427 0
232 427 0
269 427 0
8 426 0
120 426 0
144 426 0
164 426 0
186 426 0
195 426 0
206 426 0
249 426 0
275 426 0
201 425 0
226 425 0
259 425 0
1 424 0
67 424 0
170 424 0
176 424 0
190 424 0
242 424 0
266 424 0
282 424 0
5 423 0
25 423 0
155 423 0
180 423 0
220 423 0
184 422 0
197 422 0
213 422 0
273 422 0
302 422 0
478 422 0
16 421 0
165 421 0
193 421 0
206 421 0
250 421 0
292 421 0
313 421 0
50 420 0
160 420 0
173 420 0
260 420 0
278 420 0
11 419 0
150 419 0
169 419 0
177 419 0
235 419 0
245 419 0
255 419 0
267 419 0
6 418 0
188 418 0
196 418 0
201 418 0
0 417 0
34 417 0
183 417 0
214 417 0
284 417 0
135 416 0
172 416 0
220 416 0
22 415 0
205 415 0
227 415 0
241 415 0
258 415 0
264 415 0
9 414 0
144 414 0
159 414 0
165 414 0
178 414 0
193 414 0
252 414 0
272 414 0
351 414 0
4 413 0
93 413 0
183 413 0
211 413 0
277 413 0
289 413 0
448 413 0
173 412 0
189 412 0
197 412 0
234 412 0
0 411 0
153 411 0
216 411 0
267 411 0
17 410 0
169 410 0
177 410 0
512 410 0
161 409 0
201 409 0
255 409 0
271 409 0
299 409 0
322 409 0
10 408 0
181 408 0
206 408 0
211 408 0
221 408 0
243 408 0
280 408 0
409 408 0
60 407 0
120 407 0
156 407 0
193 407 0
226 407 0
237 407 0
249 407 0
261 407 0
287 407 0
44 406 0
149 406 0
186 406 0
232 406 0
171 405 0
215 405 0
0 404 0
165 404 0
197 404 0
203 404 0
208 404 0
219 404 0
269 404 0
308 404 0
6 403 0
141 403 0
182 403 0
224 403 0
254 403 0
191 402 0
278 402 0
291 402 0
19 401 0
156 401 0
176 401 0
216 401 0
231 401 0
240 401 0
247 401 0
265 401 0
285 401 0
298 401 0
29 400 0
200 400 0
207 400 0
273 400 0
74 399 0
148 399 0
161 399 0
171 399 0
195 399 0
212 399 0
260 399 0
0 398 0
184 398 0
220 398 0
224 398 0
166 397 0
216 397 0
228 397 0
268 397 0
202 396 0
208 396 0
234 396 0
243 396 0
281 396 0
290 396 0
249 395 0
8 394 0
125 394 0
180 394 0
191 394 0
220 394 0
224 394 0
263 394 0
39 393 0
161 393 0
197 393 0
230 393 0
273 393 0
483 393 0
107 392 0
171 392 0
210 392 0
214 392 0
303 392 0
186 391 0
205 391 0
240 391 0
254 391 0
278 391 0
295 391 0
0 390 0
201 390 0
226 390 0
235 390 0
286 390 0
327 390 0
350 390 0
55 389 0
144 389 0
154 389 0
176 389 0
218 389 0
222 389 0
230 389 0
266 389 0
312 389 0
380 389 0
197 388 0
208 388 0
214 387 0
275 387 0
186 386 0
226 386 0
239 386 0
260 386 0
270 386 0
281 386 0
512 386 0
192 385 0
218 385 0
222 385 0
248 385 0
68 384 0
166 384 0
173 384 0
179 384 0
206 384 0
211 384 0
230 384 0
266 384 0
286 384 0
293 384 0
0 383 0
20 383 0
31 383 0
200 383 0
255 383 0
10 382 0
273 382 0
278 382 0
302 382 0
87 381 0
124 381 0
186 381 0
196 381 0
208 381 0
216 381 0
223 381 0
236 381 0
158 380 0
203 380 0
228 380 0
261 380 0
267 380 0
136 379 0
148 379 0
213 379 0
257 379 0
41 378 0
167 378 0
173 378 0
191 378 0
199 378 0
206 378 0
218 378 0
232 378 0
241 378 0
247 378 0
0 377 0
59 377 0
223 377 0
317 377 0
49 376 0
100 376 0
181 376 0
210 376 0
215 376 0
263 376 0
283 376 0
196 375 0
203 375 0
220 375 0
228 375 0
253 375 0
290 375 0
458 375 0
114 374 0
185 374 0
207 374 0
234 374 0
270 374 0
298 374 0
5 373 0
70 373 0
217 373 0
224 373 0
242 373 0
248 373 0
277 373 0
430 373 0
26 372 0
174 372 0
213 372 0
258 372 0
160 371 0
168 371 0
180 371 0
200 371 0
221 371 0
229 371 0
496 371 0
0 370 0
40 370 0
56 370 0
125 370 0
192 370 0
196 370 0
207 370 0
238 370 0
266 370 0
10 369 0
17 369 0
63 369 0
91 369 0
186 369 0
215 369 0
233 369 0
252 369 0
262 369 0
285 369 0
34 368 0
46 368 0
225 368 0
258 368 0
333 368 0
512 368 0
174 367 0
199 367 0
204 367 0
245 367 0
23 366 0
80 366 0
183 366 0
194 366 0
212 366 0
218 366 0
270 366 0
276 366 0
0 365 0
5 365 0
70 365 0
109 365 0
155 365 0
167 365 0
179 365 0
190 365 0
222 365 0
230 365 0
234 365 0
239 365 0
264 365 0
117 364 0
226 364 0
251 364 0
260 364 0
365 364 0
9 363 0
49 363 0
63 363 0
141 363 0
172 363 0
197 363 0
201 363 0
207 363 0
255 363 0
303 363 0
15 362 0
40 362 0
162 362 0
186 362 0
193 362 0
291 362 0
1 361 0
22 361 0
27 361 0
58 361 0
180 361 0
215 361 0
268 361 0
53 360 0
99 360 0
127 360 0
175 360 0
204 360 0
220 360 0
224 360 0
238 360 0
245 360 0
261 360 0
281 360 0
32 359 0
44 359 0
67 359 0
171 359 0
233 359 0
249 359 0
257 359 0
3 358 0
9 358 0
37 358 0
84 358 0
152 358 0
189 358 0
211 358 0
227 358 0
272 358 0
14 357 0
18 357 0
167 357 0
184 357 0
193 357 0
217 357 0
242 357 0
406 357 0
29 356 0
41 356 0
51 356 0
55 356 0
60 356 0
73 356 0
114 356 0
162 356 0
197 356 0
202 356 0
221 356 0
246 356 0
254 356 0
263 356 0
492 356 0
0 355 0
25 355 0
139 355 0
177 355 0
238 355 0
258 355 0
277 355 0
8 354 0
21 354 0
36 354 0
64 354 0
89 354 0
109 354 0
122 354 0
228 354 0
234 354 0
250 354 0
3 353 0
12 353 0
32 353 0
46 353 0
80 353 0
103 353 0
133 353 0
170 353 0
190 353 0
211 353 0
315 353 0
16 352 0
40 352 0
54 352 0
196 352 0
205 352 0
222 352 0
244 352 0
268 352 0
294 352 0
512 352 0
26 351 0
50 351 0
58 351 0
67 351 0
96 351 0
145 351 0
159 351 0
179 351 0
185 351 0
232 351 0
236 351 0
240 351 0
255 351 0
259 351 0
273 351 0
284 351 0
386 351 0
0 350 0
9 350 0
21 350 0
71 350 0
115 350 0
153 350 0
174 350 0
218 350 0
250 350 0
264 350 0
4 349 0
13 349 0
[...]
CELL_DATA 4705
COLOR_SCALARS lut 1
0.0373134
0.0432991
0.048863
0.0558511
0.0627511
0.0534393
0.0480777
0.0450817
0.041165
0.037378
0.0394714
0.0446524
0.050014
0.0530228
0.0529497
0.0535301
0.0586601
0.0729707
0.103449
0.202454
0.304851
0.337122
0.310743
0.29065
0.302119
0.346759
0.353392
0.355062
0.333791
0.243859
0.178556
0.113552
0.0719585
0.0522361
0.0450151
0.0401932
0.0413325
0.0415166
0.0438969
0.0458725
0.0456767
0.0437229
0.0368569
0.036921
0.0406164
0.0408647
0.0397553
0.0408583
0.0396787
0.036916
0.0341571
0.0364385
0.0433889
0.0337112
0.0648286
0.0430363
0.0461666
0.0396779
0.042522
0.0365494
0.0405452
0.0399085
0.0443887
0.0449088
0.044981
0.0423702
0.035818
0.042931
0.0289029
0.0465028
0.0466293
0.0409079
0.0443902
0.044481
0.0443998
0.0371479
0.0389057
0.0440152
0.067128
0.0625403
0.0569689
0.0409486
0.0449513
0.048613
0.0497072
0.0517151
0.0445569
0.0429998
0.0372102
0.0381748
0.0352523
0.0319114
0.0536736
0.0530551
0.0481676
0.0395082
0.0642905
0.0529764
0.0479644
0.0469252
0.0389557
0.0421094
0.0650402
0.039639
0.109221
0.0585325
0.0565903
0.0566349
0.0439795
0.0420563
0.0417913
0.0503405
0.0507343
0.0428157
0.0400223
0.0413792
0.041411
0.0445542
0.0473575
0.0573658
0.0926884
0.0728758
0.0518748
0.0450106
0.0478025
0.0317345
0.0740737
0.0690627
0.0650675
0.04354
0.0515124
0.0643984
0.0594402
0.0566158
0.0528204
0.0441372
0.0415935
0.0430327
0.0406047
0.0373231
0.0742048
0.0609307
0.053493
0.0399225
0.0919543
0.183644
0.141898
0.053815
0.0510974
0.0584053
0.0608088
0.0583275
0.0438984
0.043173
0.043844
0.0603998
0.0408785
0.0719585
0.0506974
0.0502296
0.0643721
0.0577381
0.0458152
0.0417451
0.0764683
0.04565
0.0492992
0.0650278
0.0616665
0.0544883
0.045124
0.0372475
0.0856252
0.0597154
0.0441888
0.0410116
0.0620822
0.0888082
0.0849352
0.0618235
0.0489238
0.0691166
0.0497603
0.0393197
0.443276
0.239004
0.0629276
0.0626154
0.0699615
0.0556672
0.052327
0.0511082
0.0514138
0.0500143
0.0900595
0.0826196
0.0496256
0.387395
0.343882
0.134006
0.110507
0.0648014
0.0846006
0.079735
0.0539988
0.0498313
0.0474223
0.040363
0.0575457
0.0848315
0.44023
0.380726
0.0454723
0.0568244
0.042739
0.0464874
0.362024
0.108949
0.0844404
0.0491345
0.0437606
0.409791
0.111712
0.105346
0.0973193
0.101459
0.0751176
0.067077
0.0591433
0.086869
0.0519134
0.0562117
0.132831
0.0913494
0.0868393
0.100567
0.0677799
0.0665193
0.06092
0.106204
0.0799656
0.0410388
0.0407379
0.0778492
0.136201
0.132456
0.0721364
0.0674207
0.116224
0.0571126
0.04447
0.0492164
0.490314
0.10709
0.0785362
0.128502
0.0435228
0.10779
0.22381
0.126722
0.0800691
0.0734795
0.0641093
0.0412473
0.0429952
0.075752
0.181386
0.121388
0.125323
0.0514913
0.0481786
0.0657941
0.166463
0.146064
0.147012
0.0921488
0.0824151
0.0456032
0.0574239
0.237184
0.117705
0.0640038
0.0435031
0.169416
0.149974
0.142622
0.11156
0.150342
0.044178
0.135709
0.116823
0.0852423
0.158372
0.121425
0.0560931
0.127518
0.121674
0.0553779
0.0705308
0.213511
0.0467284
0.0949411
0.39673
0.538427
0.0505146
0.0514409
0.537271
0.200679
0.127555
0.0714376
0.461331
0.0649654
0.214754
0.163176
0.120479
0.0593558
0.0527508
0.358535
0.117901
0.155269
0.189095
0.0920547
0.215709
0.290263
0.216419
0.21521
0.191924
0.184026
0.0611093
0.541755
0.267221
0.255437
0.181737
0.0603585
0.239733
0.086843
0.086326
0.0669977
0.141493
0.473587
0.558154
0.173471
0.0754823
0.0817957
0.120582
0.147383
0.212441
0.411575
0.254236
0.0802957
0.185665
0.577757
0.292501
0.319226
0.143403
0.124988
0.110935
0.267962
0.218861
0.102713
0.195836
0.187904
0.103954
0.364255
0.373321
0.183481
0.330067
0.173596
0.358319
0.0767404
0.208978
0.125207
0.150648
0.13888
0.253291
0.261846
0.347665
0.486029
0.28752
0.0842158
0.148286
0.167668
0.365153
0.13489
0.258138
0.122522
0.0597386
0.244539
0.174946
0.158976
0.174791
0.128094
0.245057
0.23824
0.236662
0.0661294
0.375757
0.457807
0.462398
0.0843995
0.307182
0.0978068
0.0510936
0.253487
0.489631
0.278646
0.188069
0.0817789
0.114973
0.155717
0.466692
0.139832
0.082885
0.46731
0.0670847
0.103494
0.242482
0.109013
0.474495
0.0492374
0.231259
0.137556
0.139474
0.0786741
0.448717
0.0646458
0.0661547
0.0890846
0.172793
0.150069
0.234592
0.0503489
0.0590295
0.135704
0.149266
0.163248
0.0673431
0.0869395
0.118336
0.111122
0.204145
0.0827193
0.136435
0.0545636
0.0522537
0.0810695
0.132462
0.168232
0.0887727
0.151081
0.121447
0.0591996
0.05165
0.056902
0.0450997
0.268504
0.266452
0.0793426
0.0994366
0.270619
0.60527
0.0512519
0.0704718
0.417545
0.0822181
0.110645
0.0886483
0.0482214
0.0587779
0.0986284
0.0913331
0.058497
0.0465226
0.0999581
0.0768303
0.438552
0.0509819
0.0698696
0.121627
0.0912696
0.0677279
0.637154
0.0598142
0.0904618
0.0481657
0.110053
0.0410448
0.0472461
0.115978
0.144725
0.054573
0.0673982
0.149233
0.412831
0.079314
0.108783
0.0848185
0.220294
0.0588801
0.0491167
0.0441196
0.0801635
0.0643792
0.0823145
0.0990377
0.0593692
0.0579203
0.344096
0.173778
0.0834364
0.0447294
0.0466476
0.0650654
0.0826713
0.0685338
0.053906
0.1103
0.0697919
0.0450653
0.418683
0.0647191
0.0530329
0.0453325
0.0851122
0.0586794
0.0993321
0.0539835
0.141031
0.102269
0.0479667
0.107012
0.0461185
0.0509765
0.086326
0.062406
0.22369
0.721366
0.0927816
0.0686654
0.0497819
0.0651968
0.086401
0.155372
0.301906
0.335121
0.0766157
0.0539772
0.0686552
0.0793789
0.0768995
0.113071
0.0588392
0.0492656
0.0957005
0.0922782
0.0813178
0.0583489
0.0622359
0.051511
0.0563832
0.0595028
0.047447
0.22222
0.0494827
0.084129
0.105571
0.20578
0.0536446
0.0943347
0.145252
0.065288
0.094958
0.0980297
0.0809075
0.0657678
0.0813266
0.138059
0.0687051
0.0602493
0.0517108
0.0629895
0.0984878
0.0647943
0.59443
0.0648501
0.512918
0.054927
0.0712044
0.0776852
0.121565
1
0.0562735
0.063683
0.06653
0.0903839
0.0571247
0.0858109
0.0743805
0.0674839
0.137696
0.0614224
0.0586148
0.496592
0.0668887
0.0653529
0.103512
0.0705165
0.16794
0.347155
0.109834
0.0633093
0.0613755
0.0624797
0.0703401
0.105447
0.0878494
0.860296
0.393529
0.3199
0.0789425
0.0732633
0.0694724
0.087644
0.115557
0.0882025
0.103013
0.309288
0.110541
0.0710032
0.0735392
0.0743046
0.0602609
0.082566
0.0766555
0.0694347
0.059608
0.0563406
0.0602242
0.0779475
0.222359
0.114051
0.170594
0.0751097
0.0589846
0.113395
0.0772436
0.0884277
0.109351
0.199933
0.094907
0.0842982
0.0564077
0.0619613
0.0905269
0.113462
0.083571
0.0940055
0.143818
0.254482
0.0611075
0.0533478
0.0833367
0.395121
0.139939
0.0923509
0.0922634
0.0714368
0.0542194
0.0942023
0.109575
0.0824486
0.0540893
0.0528847
0.096125
0.0548558
0.0537649
0.0785215
0.0548918
0.0516791
0.0654051
0.0978809
0.088478
0.0992625
0.108036
0.166536
0.307487
0.0902297
0.0763086
0.0525805
0.050952
0.0778036
0.275405
0.109705
0.0629319
0.0551909
0.0787185
0.63864
0.346402
0.101321
0.0511009
0.0531672
0.171002
0.0805521
0.0494062
0.0857369
0.0917498
0.0832566
0.119579
0.132326
0.0525893
0.0500577
0.0686605
0.0896016
0.368515
0.563289
0.273051
0.212152
0.150287
0.0956812
0.0506747
0.0491399
0.0550611
0.065588
0.24376
0.750976
0.0592064
0.0474996
0.0489961
0.0768714
0.0764704
0.0486116
0.0823271
0.0650776
0.0661671
0.0854312
0.369148
0.0672295
0.0466224
0.0461219
0.0897918
0.254235
0.10693
0.0933547
0.0858087
0.0447642
0.0450176
0.0548379
0.058938
0.0965932
0.121151
0.121791
0.211353
0.218963
0.0502524
0.0699729
0.167021
0.0708658
0.08307
0.180608
0.308497
0.286787
0.0709714
0.0567456
0.0428234
0.0429798
0.0438678
0.0728231
0.14311
0.0454606
0.0499177
0.0551068
0.0569944
0.261639
0.205807
0.0418323
0.0590727
0.173238
0.0967893
0.0824104
0.0618524
0.0501182
0.0431718
0.0414083
0.0600029
0.0835054
0.0810241
0.0963916
0.183552
0.042771
0.307048
0.160384
0.239685
0.0701397
0.0420532
0.0413156
0.0521774
0.108431
0.0531177
0.0458732
0.0413944
0.0494211
0.0636084
0.141453
0.718447
0.222308
0.0620518
0.0440729
0.065027
0.0637525
0.18738
0.0954727
0.171959
0.0419048
0.0437221
0.0808029
0.0743785
0.0907001
0.854239
0.132968
0.0690246
0.0434345
0.053296
0.118072
0.0798423
0.0625649
0.0489053
0.0428003
0.0509451
0.374584
0.0652942
0.114143
0.125754
0.216199
0.0521764
0.0505761
0.0476746
0.0726567
0.0567591
0.0927988
0.108643
0.127963
0.209741
0.0539306
0.0454419
0.059274
0.0625398
0.0527628
0.138153
0.104147
0.100429
0.0454705
0.0532333
0.450095
0.246378
0.0619426
0.0504846
0.0518205
0.0730769
0.0914455
0.165484
0.053454
0.0494191
0.0503857
0.0465578
0.0696582
0.0942725
0.0492515
0.0600335
0.114577
0.145356
0.134258
0.0743958
0.0564113
0.0486251
0.0454881
0.0499981
0.0572362
0.0670573
0.0564365
0.156079
0.0459344
0.060558
0.0533713
0.581342
0.0626075
0.0745934
0.0891197
0.171399
0.0601795
0.0515796
0.0552719
0.0573808
0.0548142
0.262695
0.0684114
0.0684732
0.0901888
0.0484233
0.0488493
0.188271
0.0423391
0.0656883
0.0654159
0.0739094
0.052726
0.0531
0.0666694
0.0654629
0.121404
0.144391
0.0549264
0.0619624
0.0483974
0.0457417
0.056273
0.060745
0.0556199
0.124336
0.05867
0.0581761
0.0745744
0.0573308
0.048312
0.0573619
0.0539999
0.0405243
0.0486423
0.0554664
0.124536
0.124446
0.0473935
0.061486
0.0448664
0.0801795
0.0516474
0.0529799
0.0627972
0.0481085
0.0507536
0.0537041
0.0546187
0.518676
0.0501029
0.051549
0.0537832
0.0553654
0.0576841
0.0767621
0.0951698
0.0780941
0.0577106
0.0659413
0.0489433
0.054165
0.0537761
0.0605221
0.299943
0.0352243
0.0477895
0.120295
0.0513547
0.048668
0.0556552
0.102704
0.0423557
0.0469728
0.0478485
0.055507
0.105038
0.0771048
0.0972777
0.0443816
0.0450493
0.0524035
0.0373888
0.0449208
0.0458464
0.0495913
0.0864464
0.0741725
0.102717
0.0534283
0.0492825
0.0661392
0.367315
0.0457217
0.0471698
0.0502037
0.0583339
0.0715911
0.0487406
0.0483851
0.0703467
0.218503
0.149832
0.0431898
0.0494047
0.0501778
0.0527369
0.0795378
0.101692
0.0799196
0.0500046
0.0482054
0.0435274
0.0440507
0.045479
0.0533744
0.0566751
0.0843418
0.14474
0.451246
0.0360224
0.0428289
0.0440002
0.0555473
0.0656438
0.0925392
0.0503275
0.0537921
0.049695
0.0621608
0.0396833
0.0452795
0.043173
0.0493948
0.0599411
0.0597726
0.0445065
0.35991
0.0681131
0.0739318
0.0550214
0.069668
0.0540105
0.0446833
0.0461434
0.042558
0.0422808
0.0438998
0.0499312
0.0488654
0.0675838
0.0587895
0.0505216
0.0588016
0.0760919
0.0489637
0.0502609
0.0657042
0.0624172
0.0459235
0.0447403
0.0488965
0.0494544
0.0500178
0.0496912
0.0671902
0.0679618
0.0532484
0.04976
0.0502313
0.0468099
0.0425884
0.04184
0.0471676
0.0697738
0.0494251
0.046965
0.050752
0.07404
0.0674127
0.044268
0.16882
0.0429105
0.0473829
0.0594834
0.0472973
0.0762046
0.0495688
0.0536969
0.0497582
0.0530349
0.170479
0.461542
0.0510039
0.0458867
0.0441387
0.0446527
0.0557237
0.0518043
0.0421627
0.0743407
0.0485081
0.0656884
0.0409365
0.0580114
0.113321
0.0532165
0.0516346
0.0508479
0.0453642
0.0490426
0.0485706
0.0528261
0.0486346
0.0545188
0.0468563
0.0446976
0.0400887
0.300379
0.383711
0.225791
0.10309
0.0439957
0.0506271
0.0490053
0.0507737
0.0395298
0.041123
0.0527512
0.0558814
0.0594196
0.0423281
0.0420908
0.0464954
0.071746
0.0482928
0.0514365
0.0454526
0.0434761
0.0393752
0.0665174
0.0481139
0.057523
0.0483728
0.0525901
0.386394
0.0624424
0.0481529
0.0441823
0.0491575
0.0572629
0.0477959
0.0462784
0.0400504
0.417395
0.0596277
0.0549852
0.0537328
0.0521724
0.046609
0.036836
0.0399549
0.0467026
0.0615668
0.0684303
0.0569738
0.0414962
0.0392854
0.0438596
0.058477
0.112363
0.050171
0.0543841
0.0535684
0.0425796
0.0513882
0.0689601
0.0495287
0.0458639
0.0486391
0.0565527
0.0485597
0.0382591
0.0468445
0.0511742
0.0556716
0.045333
0.0439853
0.044603
0.0463793
0.042185
0.0380876
0.036401
0.0359259
0.0516545
0.0404626
0.0391767
0.0411151
0.0770987
0.120253
0.0880333
0.0583994
0.0475502
0.0369547
0.0454684
0.0533455
0.0380377
0.208306
0.355512
0.0631053
0.0394893
0.0551975
0.0619874
0.0410521
0.0377194
0.0372607
0.0446264
0.0529608
0.160226
0.077358
0.0826224
0.0720384
0.0546717
0.0443143
0.0365689
0.0352983
0.0428322
0.0580457
0.0514186
0.0477801
0.0447964
0.0461142
0.0452479
0.0393159
0.127773
0.070795
0.0633642
0.0512148
0.0472521
0.0486758
0.0485099
0.035468
0.0382646
0.048137
0.0648223
0.067381
0.0494095
0.0361496
0.0433697
0.0640935
0.298755
0.086321
0.0624786
0.0517382
0.0387536
0.0480731
0.0487591
0.0457311
0.0397912
0.035953
0.0360628
0.0566068
0.0840774
0.293761
0.0648456
0.0715295
0.0492689
0.0429094
0.036322
0.0352527
0.0530357
0.0563995
0.0619784
0.0693982
0.0617779
0.0372391
0.344863
0.0503602
0.044261
0.0553275
0.0489907
0.0459475
0.0454355
0.0470325
0.0413411
0.0526145
0.15961
0.302679
0.341706
0.106573
0.0869321
0.0581331
0.0509062
0.0558702
0.0393401
0.0361019
0.0503108
0.0470779
0.0406922
0.0346378
0.0352562
0.274525
0.257206
0.0841764
0.102792
0.084184
0.0720004
0.0543317
0.0573339
0.0411415
0.0705232
0.0487562
0.0443383
0.0354286
0.0366657
0.0398602
0.0491843
0.0800075
0.272763
0.19756
0.109856
0.104135
0.095712
0.0784196
0.0554261
0.059653
0.0733985
0.0480187
0.0703043
0.0938594
0.293585
0.134491
0.0507523
0.0383336
0.0656722
0.0603485
0.034427
0.265505
0.0668459
0.0559488
0.0671228
0.0618456
0.0528085
0.0725103
0.046255
0.0405498
0.0357001
0.0358072
0.0618869
0.118873
0.0759079
0.059887
0.0467811
0.0427319
0.0402836
0.0421544
0.0463957
0.0614714
0.0535378
0.049484
0.0495237
0.0455057
0.0987864
0.0968448
0.0843357
0.0855179
0.0478972
0.0368215
0.0347854
0.0352498
0.0386028
0.253943
0.0677322
0.115409
0.0655723
0.0443931
0.085751
0.0427273
0.0444212
0.0845812
0.132613
0.0618621
0.0706785
0.0775401
0.0651757
0.038927
0.0350607
0.0652917
0.107337
0.0649338
0.0549258
0.0465461
0.0491449
0.0488532
0.0450705
0.0359647
0.133329
0.218187
0.0784011
0.124446
0.101677
0.0733458
0.0838337
0.0574838
0.0493622
0.0681146
0.0905841
0.0807789
0.0455749
0.0360309
0.0395257
0.0428352
0.185756
0.261588
0.235083
0.131622
0.092344
0.0877701
0.0489505
0.0403008
0.0381616
0.181655
0.101816
0.08164
0.0573238
0.0552899
0.056766
0.0494488
0.035267
0.0511578
0.129323
0.187904
0.241409
0.249872
0.1971
0.0625008
0.0723082
0.0667561
0.0805168
0.0886097
0.0997061
0.0363856
0.0370279
0.0652963
0.175657
0.0756404
0.0453657
0.0416321
0.171815
0.12428
0.106911
0.0799415
0.0353827
0.036103
0.0466856
0.0894132
0.184284
0.160074
0.0854287
0.106397
0.0934097
0.0777702
0.0558291
0.0444512
0.0480744
0.0444704
0.0412646
0.167926
0.224944
0.122951
0.0900541
0.104756
0.0733896
0.0469719
0.0393245
0.132224
0.128041
0.233355
0.0686664
0.108094
0.0864959
0.0775568
0.0860025
0.0966641
0.0353994
0.257779
0.16313
0.138039
0.161337
0.156711
0.145707
0.0948233
0.0776878
0.0357042
0.0385183
0.0479424
0.0564868
0.195074
0.145209
0.123773
0.121578
0.154756
0.0684961
0.0429194
0.0429204
0.0415752
0.0747582
0.154572
0.0899328
0.0522527
0.0447331
0.0371774
0.0349602
0.035768
0.0404273
0.106235
0.236001
0.116595
0.167379
0.212142
0.111779
0.120518
0.113894
0.0448603
0.114286
0.116379
0.169315
0.0780529
0.123087
0.110686
0.138531
0.0415876
0.0434599
0.042193
0.0472444
0.112962
0.105616
0.125639
0.115106
0.114022
0.0434366
0.03627
0.0356294
0.201769
0.114066
0.042579
0.0414781
0.0384849
0.0343802
0.0373703
0.0735577
0.176983
0.106725
0.0856272
0.0548809
0.0419407
0.0404002
0.0734407
0.0408658
0.0402916
0.0342707
0.141662
0.0829205
0.097098
0.173097
0.135909
0.154404
0.206882
0.185578
0.151347
0.164648
0.129461
0.136221
0.0412567
0.0354437
0.0462817
0.0773662
0.0801632
0.0816696
0.153243
0.103297
0.218556
0.0427488
0.0381244
0.0370385
0.0573425
0.257821
0.0952206
0.0788888
0.115776
0.143124
0.11305
0.161185
0.15339
0.112595
0.0414043
0.0410031
0.033894
0.126573
0.113772
0.160229
0.10215
0.0607104
0.0477276
0.0414668
0.0410758
0.0396336
0.0350469
0.208508
0.0685682
0.0771915
0.0725935
0.142771
0.136634
0.168054
0.197221
0.0397044
0.0854085
0.312602
0.0743685
0.0683669
0.0666969
0.192682
0.174785
0.170732
0.0430876
0.0411897
0.0383235
0.0357191
0.0341106
0.0655341
0.0622236
0.0664384
0.109344
0.0744663
0.0416204
0.0338263
0.061399
0.0641194
0.080996
0.107935
0.055271
0.0456762
0.041989
0.0406237
0.0379185
0.0466052
0.166789
0.102793
0.0639212
0.135178
0.144277
0.165775
0.125235
0.0386477
0.123208
0.0770796
0.0605546
0.0606854
0.0614806
0.0972826
0.121661
0.106323
0.0820384
0.081955
0.0775385
0.305257
0.0435086
0.0420769
0.0351819
0.033838
0.0348716
0.080616
0.0625895
0.0589399
0.0629898
0.106262
0.121851
0.226608
0.0368408
0.236055
0.0583955
0.0881197
0.0922926
0.0885777
0.0489227
0.0435092
0.0432904
0.0414414
0.0393315
0.0377728
0.0593662
0.0636834
0.0605563
0.0563876
0.0605989
0.0781465
0.095918
0.0575361
0.06065
0.0567491
0.0573153
0.0842892
0.0442272
0.037629
0.0361683
0.0416343
0.0488256
0.112476
0.0833907
0.0562309
0.072825
0.0817703
0.0687008
0.0894555
0.0619913
0.231311
0.0427214
0.0345752
0.0930078
0.261727
0.0622516
0.0654335
0.0546514
0.087644
0.100027
0.263312
0.0453772
0.0440921
0.0442199
0.0351914
0.035637
0.065441
0.0830265
0.0625352
0.0678974
0.0692882
0.0912842
0.0676249
0.238938
0.0412721
0.0389425
0.0384018
0.0619379
0.182073
0.0762343
0.0673249
0.0571401
0.0552325
0.0560129
0.0816918
0.27766
0.134419
0.0958156
0.0432232
0.0434394
0.0481756
0.0641061
0.0588959
0.0699161
0.0652579
0.0587826
0.0647279
0.0478901
0.0363763
0.151002
0.0744816
0.0565927
0.0642367
0.0731895
0.043137
0.0430243
0.0399608
0.0365085
0.0361304
0.110068
0.0765438
0.059432
0.0552695
0.059338
0.0693519
0.0558141
0.0738136
0.057436
0.405376
0.291819
0.0418633
0.0388328
0.0413706
0.0824199
0.0800868
0.076676
0.0564063
0.0653272
0.0522871
0.0542963
0.0420411
0.0413578
0.0365742
0.314898
0.162092
0.0639106
0.0634434
0.0673146
0.0505902
0.0534689
0.32576
0.0451869
0.0391214
0.0487652
0.0619005
0.0794599
0.0636405
0.0648822
0.0647974
0.051933
0.0485311
0.0479751
0.07081
0.0405552
0.0383388
0.037122
0.310566
0.111436
0.0565282
0.065421
0.0662852
0.0525743
0.0397861
0.0422522
0.101722
0.0920591
0.064065
0.045598
0.0589236
0.320132
0.293331
0.192919
0.0838069
0.0605545
0.040135
0.0388434
0.0729142
0.0757817
0.0645326
0.0690946
0.044858
0.0456568
0.0478103
0.05044
0.0551071
0.0470264
0.0413595
0.0392992
0.0394678
0.0376194
0.0420355
0.0434018
0.0459178
0.101921
0.0760826
0.0699891
0.0675794
0.0494086
0.0437875
0.277219
0.0390494
0.0536786
0.256323
0.102372
0.0808407
0.0788312
0.0606244
0.0458045
0.0436517
0.0597045
0.0588207
0.0482589
0.278195
0.251635
0.0388792
0.0448832
0.165978
0.0678552
0.0432617
0.05977
0.0529034
0.0395198
0.0751556
0.078164
0.0559028
0.0434092
0.0445466
0.0541322
0.118803
0.0541209
0.0453335
0.040145
0.0392449
0.0383071
0.0383719
0.042313
0.0601668
0.0984081
0.109421
0.0856676
0.0457085
0.0430869
0.0429166
0.0490203
0.0476208
0.0518044
0.083794
0.0446923
0.0465679
0.0555592
0.070545
0.0400493
0.0405892
0.145545
0.103498
0.0933966
0.0449768
0.0444765
0.043204
0.0492435
0.0417726
0.0398816
0.0492779
0.132735
0.110685
0.079353
0.0695357
0.0532182
0.0485039
0.0548512
0.0532106
0.405261
0.0440827
0.0442938
0.120477
0.0446253
0.0512701
0.188482
0.0520705
0.0409864
0.0395377
0.0492406
0.0483419
0.0502831
0.054968
0.246923
0.118813
0.106517
0.066715
0.0503532
0.0469708
0.043851
0.0445339
0.0688843
0.0422568
0.0411419
0.0400202
0.0750373
0.172459
0.359508
0.0486201
0.0459243
0.0524981
0.0388336
0.410237
0.269304
0.10526
0.0393965
0.0424916
0.0523724
0.0618378
0.269569
0.0460132
0.0493849
0.105526
0.158426
0.117112
0.0454891
0.0435155
0.244101
0.0488127
0.0425695
0.0413905
0.0455068
0.0497752
0.0511152
0.0505458
0.0611765
0.0540758
0.0529216
0.230346
0.0687733
0.0555425
0.227362
0.187283
0.127463
0.0527139
0.0485867
0.0490394
0.0511381
0.0531665
0.037116
0.0457352
0.0400685
0.0421782
0.120448
0.0799816
0.0543283
0.164505
0.0514355
0.0684081
0.0809009
0.167609
0.0586834
0.0511427
0.0504682
0.0446044
0.273334
0.0427454
0.0406899
0.0441528
0.056906
0.183174
0.105523
0.0610171
0.0536385
0.0689608
0.0441
0.0406719
0.0473606
0.0549065
0.0679702
0.171857
0.0582377
0.0599314
0.0394193
0.100143
0.144881
0.068633
0.0602703
0.298007
0.05986
0.0486847
0.0414573
0.0402912
0.0417164
0.160795
0.0817782
0.134589
0.0429679
0.145747
0.102085
0.0737384
0.0716934
0.0665724
0.19369
0.0475803
0.0531656
0.0784187
0.0712962
0.0737149
0.0692995
0.0600164
0.049223
0.305177
0.456085
0.0876147
0.039906
0.0602067
0.0705313
0.114806
0.139767
0.286603
0.199388
0.194223
0.0474425
0.0418804
0.0409577